phonopy:
  version: 2.8.1
  frequency_unit_conversion_factor: 15.633302
  symmetry_tolerance: 1.00000e-03

physical_unit:
  atomic_mass: "AMU"

space_group:
  type: "P4mm"
  number: 99
  Hall_symbol: "P 4 -2"

primitive_matrix:
- [  1.000000000000000,  0.000000000000000,  0.000000000000000 ]
- [  0.000000000000000,  1.000000000000000,  0.000000000000000 ]
- [  0.000000000000000,  0.000000000000000,  1.000000000000000 ]

supercell_matrix:
- [   2,   0,   0 ]
- [   0,   2,   0 ]
- [   0,   0,   2 ]

primitive_cell:
  lattice:
  - [     3.875022815677527,    -0.000000920768346,    -0.000074694421626 ] # a
  - [    -0.000000920768346,     3.874970149315646,     0.000006482950007 ] # b
  - [    -0.000089509266813,     0.000007768850628,     4.118425514466110 ] # c
  points:
  - symbol: Ti # 1
    coordinates: [  0.500086722428578,  0.499998103619404,  0.545443005032564 ]
    mass: 47.867000
  - symbol: Pb # 2
    coordinates: [  0.000015435425889,  0.999998482676663,  0.018856193752309 ]
    mass: 207.200000
  - symbol: O  # 3
    coordinates: [  0.500020366504422,  0.500002982746240,  0.111878032711267 ]
    mass: 15.999400
  - symbol: O  # 4
    coordinates: [  0.000015410007310,  0.499999595823810,  0.621664767473121 ]
    mass: 15.999400
  - symbol: O  # 5
    coordinates: [  0.499993321655772,  0.999999378132241,  0.621667280019432 ]
    mass: 15.999400
  reciprocal_lattice: # without 2pi
  - [     0.258062996783711,     0.000000061311409,     0.000005608703879 ] # a*
  - [     0.000000061311408,     0.258066504119992,    -0.000000486806093 ] # b*
  - [     0.000004680396871,    -0.000000406229919,     0.242811238641942 ] # c*

unit_cell:
  lattice:
  - [     3.875022815677527,    -0.000000920768346,    -0.000074694421626 ] # a
  - [    -0.000000920768346,     3.874970149315646,     0.000006482950007 ] # b
  - [    -0.000089509266813,     0.000007768850628,     4.118425514466110 ] # c
  points:
  - symbol: Ti # 1
    coordinates: [  0.500086722428578,  0.499998103619404,  0.545443005032564 ]
    mass: 47.867000
    reduced_to: 1
  - symbol: Pb # 2
    coordinates: [  0.000015435425889,  0.999998482676663,  0.018856193752309 ]
    mass: 207.200000
    reduced_to: 2
  - symbol: O  # 3
    coordinates: [  0.500020366504422,  0.500002982746240,  0.111878032711267 ]
    mass: 15.999400
    reduced_to: 3
  - symbol: O  # 4
    coordinates: [  0.000015410007310,  0.499999595823810,  0.621664767473121 ]
    mass: 15.999400
    reduced_to: 4
  - symbol: O  # 5
    coordinates: [  0.499993321655772,  0.999999378132241,  0.621667280019432 ]
    mass: 15.999400
    reduced_to: 5

supercell:
  lattice:
  - [     7.750045631355055,    -0.000001841536693,    -0.000149388843251 ] # a
  - [    -0.000001841536693,     7.749940298631293,     0.000012965900013 ] # b
  - [    -0.000179018533625,     0.000015537701257,     8.236851028932220 ] # c
  points:
  - symbol: Ti # 1
    coordinates: [  0.250043361214289,  0.249999051809702,  0.272721502516282 ]
    mass: 47.867000
    reduced_to: 1
  - symbol: Ti # 2
    coordinates: [  0.750043361214289,  0.249999051809702,  0.272721502516282 ]
    mass: 47.867000
    reduced_to: 1
  - symbol: Ti # 3
    coordinates: [  0.250043361214289,  0.749999051809702,  0.272721502516282 ]
    mass: 47.867000
    reduced_to: 1
  - symbol: Ti # 4
    coordinates: [  0.750043361214289,  0.749999051809702,  0.272721502516282 ]
    mass: 47.867000
    reduced_to: 1
  - symbol: Ti # 5
    coordinates: [  0.250043361214289,  0.249999051809702,  0.772721502516282 ]
    mass: 47.867000
    reduced_to: 1
  - symbol: Ti # 6
    coordinates: [  0.750043361214289,  0.249999051809702,  0.772721502516282 ]
    mass: 47.867000
    reduced_to: 1
  - symbol: Ti # 7
    coordinates: [  0.250043361214289,  0.749999051809702,  0.772721502516282 ]
    mass: 47.867000
    reduced_to: 1
  - symbol: Ti # 8
    coordinates: [  0.750043361214289,  0.749999051809702,  0.772721502516282 ]
    mass: 47.867000
    reduced_to: 1
  - symbol: Pb # 9
    coordinates: [  0.000007717712944,  0.499999241338331,  0.009428096876154 ]
    mass: 207.200000
    reduced_to: 9
  - symbol: Pb # 10
    coordinates: [  0.500007717712944,  0.499999241338331,  0.009428096876154 ]
    mass: 207.200000
    reduced_to: 9
  - symbol: Pb # 11
    coordinates: [  0.000007717712944,  0.999999241338331,  0.009428096876154 ]
    mass: 207.200000
    reduced_to: 9
  - symbol: Pb # 12
    coordinates: [  0.500007717712944,  0.999999241338331,  0.009428096876154 ]
    mass: 207.200000
    reduced_to: 9
  - symbol: Pb # 13
    coordinates: [  0.000007717712944,  0.499999241338331,  0.509428096876154 ]
    mass: 207.200000
    reduced_to: 9
  - symbol: Pb # 14
    coordinates: [  0.500007717712944,  0.499999241338331,  0.509428096876154 ]
    mass: 207.200000
    reduced_to: 9
  - symbol: Pb # 15
    coordinates: [  0.000007717712944,  0.999999241338331,  0.509428096876154 ]
    mass: 207.200000
    reduced_to: 9
  - symbol: Pb # 16
    coordinates: [  0.500007717712944,  0.999999241338331,  0.509428096876154 ]
    mass: 207.200000
    reduced_to: 9
  - symbol: O  # 17
    coordinates: [  0.250010183252211,  0.250001491373120,  0.055939016355633 ]
    mass: 15.999400
    reduced_to: 17
  - symbol: O  # 18
    coordinates: [  0.750010183252211,  0.250001491373120,  0.055939016355633 ]
    mass: 15.999400
    reduced_to: 17
  - symbol: O  # 19
    coordinates: [  0.250010183252211,  0.750001491373120,  0.055939016355633 ]
    mass: 15.999400
    reduced_to: 17
  - symbol: O  # 20
    coordinates: [  0.750010183252211,  0.750001491373120,  0.055939016355633 ]
    mass: 15.999400
    reduced_to: 17
  - symbol: O  # 21
    coordinates: [  0.250010183252211,  0.250001491373120,  0.555939016355633 ]
    mass: 15.999400
    reduced_to: 17
  - symbol: O  # 22
    coordinates: [  0.750010183252211,  0.250001491373120,  0.555939016355633 ]
    mass: 15.999400
    reduced_to: 17
  - symbol: O  # 23
    coordinates: [  0.250010183252211,  0.750001491373120,  0.555939016355633 ]
    mass: 15.999400
    reduced_to: 17
  - symbol: O  # 24
    coordinates: [  0.750010183252211,  0.750001491373120,  0.555939016355633 ]
    mass: 15.999400
    reduced_to: 17
  - symbol: O  # 25
    coordinates: [  0.000007705003655,  0.249999797911905,  0.310832383736561 ]
    mass: 15.999400
    reduced_to: 25
  - symbol: O  # 26
    coordinates: [  0.500007705003655,  0.249999797911905,  0.310832383736561 ]
    mass: 15.999400
    reduced_to: 25
  - symbol: O  # 27
    coordinates: [  0.000007705003655,  0.749999797911905,  0.310832383736561 ]
    mass: 15.999400
    reduced_to: 25
  - symbol: O  # 28
    coordinates: [  0.500007705003655,  0.749999797911905,  0.310832383736561 ]
    mass: 15.999400
    reduced_to: 25
  - symbol: O  # 29
    coordinates: [  0.000007705003655,  0.249999797911905,  0.810832383736561 ]
    mass: 15.999400
    reduced_to: 25
  - symbol: O  # 30
    coordinates: [  0.500007705003655,  0.249999797911905,  0.810832383736561 ]
    mass: 15.999400
    reduced_to: 25
  - symbol: O  # 31
    coordinates: [  0.000007705003655,  0.749999797911905,  0.810832383736561 ]
    mass: 15.999400
    reduced_to: 25
  - symbol: O  # 32
    coordinates: [  0.500007705003655,  0.749999797911905,  0.810832383736561 ]
    mass: 15.999400
    reduced_to: 25
  - symbol: O  # 33
    coordinates: [  0.249996660827886,  0.499999689066120,  0.310833640009716 ]
    mass: 15.999400
    reduced_to: 33
  - symbol: O  # 34
    coordinates: [  0.749996660827886,  0.499999689066120,  0.310833640009716 ]
    mass: 15.999400
    reduced_to: 33
  - symbol: O  # 35
    coordinates: [  0.249996660827886,  0.999999689066120,  0.310833640009716 ]
    mass: 15.999400
    reduced_to: 33
  - symbol: O  # 36
    coordinates: [  0.749996660827886,  0.999999689066120,  0.310833640009716 ]
    mass: 15.999400
    reduced_to: 33
  - symbol: O  # 37
    coordinates: [  0.249996660827886,  0.499999689066120,  0.810833640009716 ]
    mass: 15.999400
    reduced_to: 33
  - symbol: O  # 38
    coordinates: [  0.749996660827886,  0.499999689066120,  0.810833640009716 ]
    mass: 15.999400
    reduced_to: 33
  - symbol: O  # 39
    coordinates: [  0.249996660827886,  0.999999689066120,  0.810833640009716 ]
    mass: 15.999400
    reduced_to: 33
  - symbol: O  # 40
    coordinates: [  0.749996660827886,  0.999999689066120,  0.810833640009716 ]
    mass: 15.999400
    reduced_to: 33

displacements:
- atom:    1
  displacement:
    [   0.0068525576320151,  0.0000000121103706,  0.0072830250514305 ]
  forces:
  - [  -0.1747227428819354,  0.0005779448247708, -0.1875304519160057 ]
  - [   0.0864903021932818,  0.0005780733799386,  0.0013112273581361 ]
  - [   0.0010734665037540,  0.0005779705358044,  0.0013064965279638 ]
  - [   0.0053673890830440,  0.0005780219578715, -0.0035376421691943 ]
  - [   0.0019566147949995,  0.0005778676916702,  0.0511237837486847 ]
  - [   0.0051515963784988,  0.0005779705358044,  0.0044656883527681 ]
  - [   0.0005569575508637,  0.0005782533571734,  0.0044875427312816 ]
  - [   0.0059753778932883,  0.0005780219578715,  0.0059543057729704 ]
  - [   0.0148406965258884, -0.0152245449017712,  0.0109046310386704 ]
  - [  -0.0066857120436628, -0.0060318991011066, -0.0011832828274566 ]
  - [   0.0148466871967045,  0.0154280978687972,  0.0108976376375461 ]
  - [  -0.0066849664236900,  0.0062333437633819, -0.0011836170708927 ]
  - [  -0.0033315020294178, -0.0048886322834840, -0.0041400516851593 ]
  - [   0.0129868538741760,  0.0215801054203346,  0.0156428659886556 ]
  - [  -0.0033232744986833,  0.0050983558985608, -0.0041484077710615 ]
  - [   0.0129891164451279, -0.0213738527947863,  0.0156411176383746 ]
  - [   0.0133135639774353, -0.0020378700170884,  0.1173668475711515 ]
  - [  -0.0054703257769457, -0.0020143444213945,  0.0003030720217937 ]
  - [   0.0024846422909181, -0.0020140358889919,  0.0003281402795003 ]
  - [   0.0002132524544309, -0.0020150643303337,  0.0012897843561594 ]
  - [   0.0073434362771970, -0.0020146015317299, -0.0340590558245478 ]
  - [  -0.0051950634518104, -0.0020174040343863, -0.0058718954826996 ]
  - [   0.0038917814458156, -0.0020189209853655, -0.0058371084543129 ]
  - [  -0.0023166361133201, -0.0020167355475142, -0.0061060715762296 ]
  - [  -0.0038595038143029,  0.0006564406101845,  0.0110699015622992 ]
  - [   0.0175303534560896,  0.0006564920322516,  0.0120248350592030 ]
  - [   0.0025373499096858,  0.0006565177432851, -0.0004062953937195 ]
  - [  -0.0012815870358893,  0.0006564663212180,  0.0019336914802664 ]
  - [   0.0006596988409105,  0.0006563120550167, -0.0067749955359761 ]
  - [   0.0003864162653581,  0.0006563891881174, -0.0062916023942921 ]
  - [   0.0008873700429536,  0.0006564148991509, -0.0032891707410131 ]
  - [   0.0000281844349723,  0.0006564920322516, -0.0028128995556211 ]
  - [   0.0080105861756289,  0.0099069105252923,  0.0113706949437450 ]
  - [  -0.0089369444298505, -0.0012952325241676,  0.0010946633225846 ]
  - [   0.0080108175749308, -0.0085449469418855,  0.0113706435216779 ]
  - [  -0.0089369958519176,  0.0026586359254530,  0.0010946890336181 ]
  - [   0.0025326962126142,  0.0005435434618873, -0.0061883211725408 ]
  - [  -0.0009264148184954,  0.0002546285779394, -0.0027167402901619 ]
  - [   0.0025327990567483,  0.0008200913386999, -0.0061880640622054 ]
  - [  -0.0009263376853948,  0.0011087234012788, -0.0027165860239606 ]
- atom:    1
  displacement:
    [  -0.0068525576320151, -0.0000000121103706, -0.0072830250514305 ]
  forces:
  - [   0.1811733114544310,  0.0005724278797479,  0.2567674190419245 ]
  - [  -0.0822990135604736,  0.0005776215085240,  0.0020185391765174 ]
  - [   0.0023068189979367,  0.0005776215085240,  0.0020302376967805 ]
  - [  -0.0019349358942900,  0.0005775443754234,  0.0069004988040205 ]
  - [   0.0014302527312788,  0.0005777757747253, -0.0472922921054294 ]
  - [  -0.0017856833445599,  0.0005775957974905, -0.0011269229563738 ]
  - [   0.0028384974606187,  0.0005777757747253, -0.0011027031627742 ]
  - [  -0.0025899758959221,  0.0005778014857588, -0.0026152832662407 ]
  - [  -0.0135240814206729,  0.0155403117463779, -0.0114751511597292 ]
  - [   0.0080020186164758,  0.0062511724368180,  0.0007172523467257 ]
  - [  -0.0135279123646711, -0.0153373539897785, -0.0114704974626575 ]
  - [   0.0080012729965029, -0.0060482403912521,  0.0007174323239605 ]
  - [   0.0047420909622412,  0.0050576662596480,  0.0035893290599303 ]
  - [  -0.0114985404869453, -0.0209854252838291, -0.0159024111589848 ]
  - [   0.0047353289604188, -0.0048617533262399,  0.0035962453279540 ]
  - [  -0.0115015743889036,  0.0211822895254783, -0.0158995829452948 ]
  - [  -0.0138476804888733, -0.0019953330404153, -0.1314886764546317 ]
  - [   0.0042214682439836, -0.0020182158602705, -0.0077406749593501 ]
  - [  -0.0037144222369896, -0.0020188843471427, -0.0077490567562859 ]
  - [  -0.0014253432094233, -0.0020175987954655, -0.0086557049321917 ]
  - [  -0.0084943347723517, -0.0020172388409958,  0.0262640438096790 ]
  - [   0.0038840623507694, -0.0020149505590103, -0.0015335943739589 ]
  - [  -0.0050866200972991, -0.0020136135852659, -0.0015140796994980 ]
  - [   0.0010734092967044, -0.0020159790003521, -0.0012323896159764 ]
  - [  -0.0010785527889651,  0.0006561687160047, -0.0121682692020418 ]
  - [  -0.0173823819586058,  0.0006559630277364, -0.0133445232757030 ]
  - [  -0.0049205782426639,  0.0006560144498035, -0.0014087415950632 ]
  - [  -0.0009362679293258,  0.0006559373167028, -0.0036943239220673 ]
  - [  -0.0029520643813397,  0.0006560144498035,  0.0048830568458597 ]
  - [  -0.0026597556409639,  0.0006560658718705,  0.0044132648409211 ]
  - [  -0.0031798127164834,  0.0006558858946357,  0.0014859351166277 ]
  - [  -0.0023164876321014,  0.0006559373167028,  0.0009789906682162 ]
  - [  -0.0098112024884718, -0.0086740311141269, -0.0128061599442992 ]
  - [   0.0070875542863722,  0.0026134468556697, -0.0022232671377764 ]
  - [  -0.0098116395760421,  0.0100360936850128, -0.0128059028339637 ]
  - [   0.0070876571305064, -0.0012508443530793, -0.0022231900046757 ]
  - [  -0.0043153919350761,  0.0008249873622628,  0.0049918145177561 ]
  - [  -0.0008371261839753,  0.0011185045212152,  0.0015638395482698 ]
  - [  -0.0043153148019754,  0.0005369466534554,  0.0049917116736219 ]
  - [  -0.0008370490508747,  0.0002438922931068,  0.0015637881262027 ]
- atom:    9
  displacement:
    [   0.0068525576320151,  0.0000000121103706,  0.0072830250514305 ]
  forces:
  - [   0.0103157442407985, -0.0105937666453849,  0.0180390700374882 ]
  - [  -0.0026215079074620, -0.0012519454280909, -0.0023084876440138 ]
  - [   0.0103155642635637,  0.0117228962512128,  0.0180385301057837 ]
  - [  -0.0026213536412607,  0.0023817178097573, -0.0023082819557454 ]
  - [  -0.0059744580810632, -0.0020701476486011,  0.0011332427284192 ]
  - [   0.0148834636163117,  0.0239618624394180,  0.0163272037130125 ]
  - [  -0.0059744066589961,  0.0032002542737036,  0.0011332170173857 ]
  - [   0.0148836693045801, -0.0228328613887580,  0.0163274094012809 ]
  - [  -0.0493864069367255,  0.0005930269170485, -0.0770071647795372 ]
  - [   0.0187402472032655,  0.0000938472007676, -0.0059969668053804 ]
  - [  -0.0042553155340943,  0.0000883964616561, -0.0059944214130594 ]
  - [   0.0063527997963364,  0.0000889363933605, -0.0028947763419459 ]
  - [  -0.0038896275039803,  0.0000875994196161,  0.0147391617260908 ]
  - [   0.0062835599829991,  0.0000882164844212,  0.0065656241620589 ]
  - [  -0.0012782092488573,  0.0000873423092807,  0.0065405301933187 ]
  - [   0.0033537619994854,  0.0000880879292535,  0.0040357098832743 ]
  - [  -0.0029201929841570,  0.0022941974515693, -0.0038353630821314 ]
  - [   0.0010386891170049, -0.0023428902924490,  0.0059493306879794 ]
  - [  -0.0029194730752177, -0.0063531687496678, -0.0038411737757126 ]
  - [   0.0010387148280385, -0.0017048195729567,  0.0059607720979071 ]
  - [  -0.0000373433478969, -0.0012681690902579, -0.0056245424844776 ]
  - [  -0.0001739717801564, -0.0029154492984679, -0.0086216776648462 ]
  - [  -0.0000373947699640, -0.0027895937892640, -0.0056238482865719 ]
  - [  -0.0001739974911899, -0.0011472758105282, -0.0086227832392887 ]
  - [   0.0048009846556799,  0.0041342847003351, -0.0038560090420682 ]
  - [  -0.0059792403333026,  0.0010448983316061, -0.0006424898033828 ]
  - [   0.0048008046784451, -0.0028474179037072, -0.0038556747986321 ]
  - [  -0.0059790860671013,  0.0002414542443509, -0.0006423098261480 ]
  - [   0.0069706102213950,  0.0011572555481988,  0.0058560767693109 ]
  - [  -0.0055411243216917, -0.0009654216702627,  0.0025131024767252 ]
  - [   0.0069706616434621,  0.0001290198946575,  0.0058560767693109 ]
  - [  -0.0055413300099601,  0.0022519285124209,  0.0025131024767252 ]
  - [  -0.0057055978032806,  0.0006683088232689, -0.0073163027807208 ]
  - [   0.0012928683946332,  0.0006684373784367,  0.0002542339135745 ]
  - [  -0.0008055633191952,  0.0006684116674031, -0.0017797916612230 ]
  - [   0.0000026630202994,  0.0006685659336044,  0.0011377421592896 ]
  - [  -0.0000357749748507,  0.0006682059791348,  0.0071643312891933 ]
  - [   0.0007523453364116,  0.0006689258880740,  0.0050193883156816 ]
  - [   0.0011603023056739,  0.0006684373784367,  0.0024857716480666 ]
  - [  -0.0021060788179805,  0.0006684116674031,  0.0031824378130084 ]
- atom:    9
  displacement:
    [  -0.0068525576320151, -0.0000000121103706, -0.0072830250514305 ]
  forces:
  - [  -0.0065200584256341,  0.0115191864468821, -0.0122427013586036 ]
  - [   0.0063259195535407,  0.0024025938834444,  0.0079084497376462 ]
  - [  -0.0065199812925335, -0.0103880025294741, -0.0122419043165637 ]
  - [   0.0063258424204401, -0.0012719498977407,  0.0079080640721431 ]
  - [   0.0095894210414381,  0.0033205806251436,  0.0046068702090684 ]
  - [  -0.0112859841587476, -0.0231812728898812, -0.0107963528775496 ]
  - [   0.0095894467524716, -0.0021898337953058,  0.0046068187870013 ]
  - [  -0.0112859841587476,  0.0243128167617589, -0.0107967385430528 ]
  - [   0.0442909859526439,  0.0005928970763291,  0.0513974031387765 ]
  - [  -0.0171259368961464,  0.0000855155403473,  0.0077813600988321 ]
  - [   0.0059227705475514,  0.0000884465981715,  0.0077830313160126 ]
  - [  -0.0046402476300410,  0.0000881894878360,  0.0046765213989424 ]
  - [   0.0055563626084981,  0.0000897321498487, -0.0130957163185340 ]
  - [  -0.0045944819903305,  0.0000884208871379, -0.0047293202918793 ]
  - [   0.0029605766617707,  0.0000893207733120, -0.0047097284843178 ]
  - [  -0.0016890837776512,  0.0000885494423056, -0.0022502110153801 ]
  - [   0.0019913478302158, -0.0062822590047017, -0.0013024251858019 ]
  - [  -0.0020158710140112, -0.0017442101618997, -0.0110528204371634 ]
  - [   0.0019909878757461,  0.0022252134630158, -0.0012969744466903 ]
  - [  -0.0020160509912460, -0.0023243025007474, -0.0110648789118961 ]
  - [  -0.0008649937304592, -0.0027774337559487,  0.0004170258935696 ]
  - [  -0.0007382383350811, -0.0011454773237317,  0.0035097032745924 ]
  - [  -0.0008650708635598, -0.0012810258925822,  0.0004159717411942 ]
  - [  -0.0007383668902489, -0.0029078658291238,  0.0035107317159342 ]
  - [  -0.0067229699023732, -0.0027362703912428,  0.0041335043704670 ]
  - [   0.0040137520178508,  0.0002256149621353,  0.0010592875115297 ]
  - [  -0.0067228927692725,  0.0040237259705389,  0.0041329901497961 ]
  - [   0.0040138291509515,  0.0010619691723284,  0.0010594931997980 ]
  - [  -0.0089433233372730, -0.0003458641804747, -0.0059026433077163 ]
  - [   0.0037133443019082,  0.0023121681784658, -0.0020869716634014 ]
  - [  -0.0089436061586420,  0.0016335768701062, -0.0059029004180518 ]
  - [   0.0037133957239753, -0.0010245840440020, -0.0020870230854685 ]
  - [   0.0039893265359828,  0.0006692588459584,  0.0080295487056443 ]
  - [  -0.0026951565202765,  0.0006690531576901,  0.0008630609035124 ]
  - [  -0.0006148767961311,  0.0006687189142540,  0.0028513722606665 ]
  - [  -0.0014496626332779,  0.0006691302907907, -0.0000801740731283 ]
  - [  -0.0013519864168396,  0.0006690788687236, -0.0061693181476476 ]
  - [  -0.0037266574750780,  0.0006685646480527, -0.0053004651910532 ]
  - [  -0.0026020054457421,  0.0006690531576901, -0.0014155023113339 ]
  - [   0.0006861786343587,  0.0006689760245894, -0.0021264380998933 ]
- atom:   17
  displacement:
    [   0.0068525576320151,  0.0000000121103706,  0.0072830250514305 ]
  forces:
  - [   0.0134873191421341,  0.0005105709896931,  0.1301632913158739 ]
  - [  -0.0047212091035716,  0.0005118565413703,  0.0067904909331180 ]
  - [   0.0032714513394695,  0.0005118822524039,  0.0067762984426010 ]
  - [   0.0010033782263097,  0.0005118051193032,  0.0077203561723152 ]
  - [   0.0081209122205715,  0.0005123193399741, -0.0277251060724550 ]
  - [  -0.0042916291550977,  0.0005118051193032,  0.0005244035257404 ]
  - [   0.0046606956150195,  0.0005123964730748,  0.0005259976098202 ]
  - [  -0.0015029590347139,  0.0005119593855045,  0.0002458758993448 ]
  - [  -0.0050824748359158,  0.0075430014629201,  0.0025296070319337 ]
  - [   0.0054212022762542,  0.0029973164431552,  0.0062441571813152 ]
  - [  -0.0050747101037851, -0.0074638346195310,  0.0025220736991049 ]
  - [   0.0054215365196903, -0.0029282026138822,  0.0062436686716778 ]
  - [   0.0025878206685351, -0.0007744664668981, -0.0036743368073651 ]
  - [  -0.0006821085777485, -0.0024482804617267, -0.0038495575009759 ]
  - [   0.0025947112255253,  0.0008512164731339, -0.0036813816305565 ]
  - [  -0.0006822371329162,  0.0025183198882073, -0.0038494803678752 ]
  - [  -0.0344758683165389,  0.0005415527851151, -0.2049110996653989 ]
  - [   0.0007834203343302, -0.0020838265612230, -0.0080861958975270 ]
  - [  -0.0027354174277050, -0.0020835694508875, -0.0080834962390048 ]
  - [   0.0037290048924406, -0.0020833637626191, -0.0060509361931194 ]
  - [  -0.0006113775244656, -0.0020788386207152,  0.0275710224195218 ]
  - [   0.0010670644564013, -0.0020808440813317,  0.0034870859211584 ]
  - [  -0.0011124341461952, -0.0020820782109419,  0.0034881143625003 ]
  - [   0.0000286729446097, -0.0020818211006064,  0.0002421735105143 ]
  - [  -0.0139936362413271,  0.0005903266157504, -0.0005461782000499 ]
  - [   0.0218574689796864,  0.0005903009047169,  0.0130263164540129 ]
  - [  -0.0035259031540534,  0.0005901980605827, -0.0000260439914296 ]
  - [   0.0016218828492740,  0.0005901466385156,  0.0005804278678355 ]
  - [   0.0143018703958808,  0.0005902751936833,  0.0130640859622908 ]
  - [  -0.0048414853184962,  0.0005902494826498,  0.0011235991625122 ]
  - [  -0.0003200458033644,  0.0005900180833479,  0.0046270103044202 ]
  - [  -0.0018012070238386,  0.0005902751936833, -0.0007994575915040 ]
  - [  -0.0022809234877257,  0.0184928164291671,  0.0065004704747277 ]
  - [   0.0001594135501872,  0.0031926945870654,  0.0006067045441187 ]
  - [  -0.0022810263318599, -0.0172625666139575,  0.0065002647864593 ]
  - [   0.0001594135501872, -0.0019616734408495,  0.0006067816772194 ]
  - [  -0.0022946531796389, -0.0090270654590816,  0.0075416644891758 ]
  - [   0.0021643599460450, -0.0001113789117663,  0.0022456543774601 ]
  - [  -0.0022945503355047,  0.0102562611219158,  0.0075400446940624 ]
  - [   0.0021642571019109,  0.0013422457917809,  0.0022456286664265 ]
- atom:   17
  displacement:
    [  -0.0068525576320151, -0.0000000121103706, -0.0072830250514305 ]
  forces:
  - [  -0.0110646520120251,  0.0005134711942770, -0.1197191268902753 ]
  - [   0.0080400600189335,  0.0005124684639687, -0.0019642901812886 ]
  - [   0.0001598339255857,  0.0005123913308681, -0.0019839076998836 ]
  - [   0.0024471903139044,  0.0005123913308681, -0.0029127444977390 ]
  - [  -0.0046509575610643,  0.0005121342205326,  0.0323302433578625 ]
  - [   0.0078871822134735,  0.0005123656198345,  0.0042412991641571 ]
  - [  -0.0012347325339082,  0.0005121599315662,  0.0042347428506030 ]
  - [   0.0049698797922628,  0.0005124427529352,  0.0045122420356568 ]
  - [   0.0064394453366081, -0.0074733014220823, -0.0017315024835700 ]
  - [  -0.0038626315615336, -0.0027860000295502, -0.0055158066669597 ]
  - [   0.0064310121176052,  0.0075349230561802, -0.0017237120404058 ]
  - [  -0.0038627344056678,  0.0028583174536029, -0.0055155495566243 ]
  - [  -0.0011694007976697,  0.0008214379540819,  0.0045082568254573 ]
  - [   0.0020598021714783,  0.0024522631008229,  0.0046276588652414 ]
  - [  -0.0011747229816136, -0.0007554454442813,  0.0045138875418037 ]
  - [   0.0020601621259479, -0.0023811026732797,  0.0046276331542078 ]
  - [   0.0369852844738296,  0.0005462013399801,  0.2034119747885625 ]
  - [  -0.0019843120058861, -0.0020801807366662,  0.0019104654181133 ]
  - [   0.0015749177898486, -0.0020804378470017,  0.0019174331082041 ]
  - [  -0.0049568160161184, -0.0020806949573372, -0.0001328675508276 ]
  - [  -0.0005536472552948, -0.0020848858558050, -0.0337122486919178 ]
  - [  -0.0022483900314293, -0.0020831117944904, -0.0096704782885687 ]
  - [  -0.0000586841485153, -0.0020819290869473, -0.0096672644093755 ]
  - [  -0.0012030822516140, -0.0020822119083163, -0.0063946869266367 ]
  - [   0.0117037537439625,  0.0005908099831810, -0.0001700457053340 ]
  - [  -0.0235857453713223,  0.0005908099831810, -0.0131710355057531 ]
  - [   0.0012885225871882,  0.0005909128273152, -0.0005672297515409 ]
  - [  -0.0038705505598656,  0.0005908356942146, -0.0011916736232541 ]
  - [  -0.0173994135900020,  0.0005906300059462, -0.0146882435952578 ]
  - [   0.0025762339912680,  0.0005908099831810, -0.0016797461730434 ]
  - [  -0.0019422230439725,  0.0005908871162817, -0.0052305170387417 ]
  - [  -0.0004301314501434,  0.0005908099831810,  0.0002601513079450 ]
  - [   0.0005310755389454, -0.0171056058963705, -0.0064311451722038 ]
  - [  -0.0019008282799647, -0.0019600330769093, -0.0005520088196821 ]
  - [   0.0005310241168783,  0.0183380308650180, -0.0064307337956671 ]
  - [  -0.0019008025689312,  0.0031922780683220, -0.0005519573976150 ]
  - [   0.0006207813349847,  0.0105278416270474, -0.0077468816028480 ]
  - [  -0.0039363450947078,  0.0013802415571541, -0.0021476098504662 ]
  - [   0.0006207813349847, -0.0092947481715278, -0.0077454674960030 ]
  - [  -0.0039361394064395, -0.0001481765429763, -0.0021475070063320 ]
- atom:   25
  displacement:
    [   0.0056526861011913,  0.0056527511800689,  0.0060077902707758 ]
  forces:
  - [   0.0081660787932004,  0.0066216594313432,  0.0048833139561951 ]
  - [   0.0079838904094989,  0.0068643715880103,  0.0193101605439327 ]
  - [   0.0019841693096499, -0.0072562823012370,  0.0051182613807315 ]
  - [   0.0039987573430872, -0.0071181883400655,  0.0020939239268720 ]
  - [   0.0026973933801949,  0.0022426847530856, -0.0023767362970079 ]
  - [   0.0031006452303184,  0.0022452301454066, -0.0025324166051243 ]
  - [   0.0026361239872566, -0.0006132968531197,  0.0007093333483937 ]
  - [   0.0030515628672806, -0.0006137853627571,  0.0000374783308231 ]
  - [   0.0064362661673102,  0.0022107259383888, -0.0004401812503804 ]
  - [  -0.0024178167436307,  0.0016790731867404, -0.0000905369051987 ]
  - [   0.0064272673055694, -0.0041716267626803, -0.0055531802253211 ]
  - [  -0.0024312379031413, -0.0008879678244835, -0.0007523646196867 ]
  - [   0.0082353443175713,  0.0013434927769079,  0.0063399725617007 ]
  - [  -0.0021652058390487,  0.0006285717781489,  0.0008752466478612 ]
  - [   0.0082338273665921,  0.0019682451810237,  0.0045567324081035 ]
  - [  -0.0021045277998819,  0.0000417174374788,  0.0034400507991666 ]
  - [  -0.0013511945170064, -0.0030633269506792, -0.0119899888954391 ]
  - [   0.0102776488451704, -0.0030359446999535,  0.0154678265578313 ]
  - [   0.0003453994535434, -0.0010506929557913, -0.0050319661532920 ]
  - [   0.0009103994157001, -0.0010437766877677, -0.0010382198906427 ]
  - [   0.0110435548234495, -0.0031103267199999,  0.0104079465781951 ]
  - [   0.0000464315554793, -0.0030935374150949, -0.0048668498958644 ]
  - [   0.0029334978012408,  0.0006349995365353, -0.0011186440035722 ]
  - [  -0.0018582932316191,  0.0006283918009141, -0.0022717067249756 ]
  - [  -0.1426165602542304, -0.0390088173758373, -0.0361661765821627 ]
  - [   0.0364722812203631,  0.0018936060506419, -0.0014351468265141 ]
  - [  -0.0060407841915240,  0.0030924344117558, -0.0028900570817386 ]
  - [   0.0068368954920121,  0.0039098138791925, -0.0004701088934271 ]
  - [  -0.0037125729709019, -0.0007118472446986,  0.0017074613816535 ]
  - [   0.0038333325532572,  0.0002879777167751,  0.0014914372778064 ]
  - [  -0.0005922819398515,  0.0034937065122963,  0.0029721614107103 ]
  - [   0.0007668032933499,  0.0013303287277327,  0.0006519720325543 ]
  - [   0.0135859132424700,  0.0196338592423880,  0.0003230507804100 ]
  - [   0.0003906251615495, -0.0089209174570900, -0.0038596715787967 ]
  - [  -0.0000834348749577, -0.0043490328941425, -0.0000536158610277 ]
  - [   0.0135149250788516,  0.0235041925440202, -0.0041863045489555 ]
  - [   0.0011205099818318,  0.0020923266289130,  0.0016819046143095 ]
  - [  -0.0003879563562675, -0.0001750265753075,  0.0017037847038565 ]
  - [  -0.0004310223374558, -0.0001965467103849,  0.0016623899398487 ]
  - [   0.0011633445637181,  0.0020735318633914,  0.0016894636581718 ]
- atom:   25
  displacement:
    [  -0.0056526861011913, -0.0056527511800689, -0.0060077902707758 ]
  forces:
  - [  -0.0033472410386025, -0.0056932925026259, -0.0001371175846726 ]
  - [  -0.0061012526857674, -0.0054312970707999, -0.0144185682777118 ]
  - [   0.0015889945807146,  0.0082948724307628, -0.0000264315852603 ]
  - [  -0.0004534385020522,  0.0084342005215444,  0.0030231026814735 ]
  - [   0.0008645090774768, -0.0010581845081906,  0.0074333419765221 ]
  - [   0.0004336692883592, -0.0010561790475741,  0.0077421572004340 ]
  - [   0.0009336717577135,  0.0017861499998187,  0.0043940921232064 ]
  - [   0.0004862740629928,  0.0017861757108523,  0.0050549942404868 ]
  - [  -0.0049472386561228, -0.0019987455373426,  0.0015281089249520 ]
  - [   0.0039457193375384, -0.0014644702602725,  0.0012754723093364 ]
  - [  -0.0049540006579452,  0.0045174588043631,  0.0068595488408930 ]