phonopy:
  version: 2.17.1
  frequency_unit_conversion_factor: 15.633302
  symmetry_tolerance: 1.00000e-05
  nac_unit_conversion_factor: 14.399652

physical_unit:
  atomic_mass: "AMU"

space_group:
  type: "Pm-3m"
  number: 221
  Hall_symbol: "-P 4 2 3"

primitive_matrix:
- [  1.000000000000000,  0.000000000000000,  0.000000000000000 ]
- [  0.000000000000000,  1.000000000000000,  0.000000000000000 ]
- [  0.000000000000000,  0.000000000000000,  1.000000000000000 ]

supercell_matrix:
- [   4,   0,   0 ]
- [   0,   4,   0 ]
- [   0,   0,   4 ]

primitive_cell:
  lattice:
  - [     3.966975974387009,     0.000000000000000,     0.000000000000000 ] # a
  - [     0.000000000000000,     3.966975974387009,     0.000000000000000 ] # b
  - [     0.000000000000000,     0.000000000000000,     3.966975974387009 ] # c
  points:
  - symbol: Ba # 1
    coordinates: [  0.000000000000000,  0.000000000000000,  0.000000000000000 ]
    mass: 137.327000
  - symbol: Ti # 2
    coordinates: [  0.500000000000000,  0.500000000000000,  0.500000000000000 ]
    mass: 47.867000
  - symbol: O  # 3
    coordinates: [  0.500000000000000,  0.500000000000000,  0.000000000000000 ]
    mass: 15.999400
  - symbol: O  # 4
    coordinates: [  0.000000000000000,  0.500000000000000,  0.500000000000000 ]
    mass: 15.999400
  - symbol: O  # 5
    coordinates: [  0.500000000000000,  0.000000000000000,  0.500000000000000 ]
    mass: 15.999400
  reciprocal_lattice: # without 2pi
  - [     0.252081183868154,     0.000000000000000,     0.000000000000000 ] # a*
  - [     0.000000000000000,     0.252081183868154,     0.000000000000000 ] # b*
  - [     0.000000000000000,     0.000000000000000,     0.252081183868154 ] # c*

unit_cell:
  lattice:
  - [     3.966975974387009,     0.000000000000000,     0.000000000000000 ] # a
  - [     0.000000000000000,     3.966975974387009,     0.000000000000000 ] # b
  - [     0.000000000000000,     0.000000000000000,     3.966975974387009 ] # c
  points:
  - symbol: Ba # 1
    coordinates: [  0.000000000000000,  0.000000000000000,  0.000000000000000 ]
    mass: 137.327000
    reduced_to: 1
  - symbol: Ti # 2
    coordinates: [  0.500000000000000,  0.500000000000000,  0.500000000000000 ]
    mass: 47.867000
    reduced_to: 2
  - symbol: O  # 3
    coordinates: [  0.500000000000000,  0.500000000000000,  0.000000000000000 ]
    mass: 15.999400
    reduced_to: 3
  - symbol: O  # 4
    coordinates: [  0.000000000000000,  0.500000000000000,  0.500000000000000 ]
    mass: 15.999400
    reduced_to: 4
  - symbol: O  # 5
    coordinates: [  0.500000000000000,  0.000000000000000,  0.500000000000000 ]
    mass: 15.999400
    reduced_to: 5

supercell:
  lattice:
  - [    15.867903897548038,     0.000000000000000,     0.000000000000000 ] # a
  - [     0.000000000000000,    15.867903897548038,     0.000000000000000 ] # b
  - [     0.000000000000000,     0.000000000000000,    15.867903897548038 ] # c
  points:
  - symbol: Ba # 1
    coordinates: [  0.000000000000000,  0.000000000000000,  0.000000000000000 ]
    mass: 137.327000
    reduced_to: 1
  - symbol: Ba # 2
    coordinates: [  0.250000000000000,  0.000000000000000,  0.000000000000000 ]
    mass: 137.327000
    reduced_to: 1
  - symbol: Ba # 3
    coordinates: [  0.500000000000000,  0.000000000000000,  0.000000000000000 ]
    mass: 137.327000
    reduced_to: 1
  - symbol: Ba # 4
    coordinates: [  0.750000000000000,  0.000000000000000,  0.000000000000000 ]
    mass: 137.327000
    reduced_to: 1
  - symbol: Ba # 5
    coordinates: [  0.000000000000000,  0.250000000000000,  0.000000000000000 ]
    mass: 137.327000
    reduced_to: 1
  - symbol: Ba # 6
    coordinates: [  0.250000000000000,  0.250000000000000,  0.000000000000000 ]
    mass: 137.327000
    reduced_to: 1
  - symbol: Ba # 7
    coordinates: [  0.500000000000000,  0.250000000000000,  0.000000000000000 ]
    mass: 137.327000
    reduced_to: 1
  - symbol: Ba # 8
    coordinates: [  0.750000000000000,  0.250000000000000,  0.000000000000000 ]
    mass: 137.327000
    reduced_to: 1
  - symbol: Ba # 9
    coordinates: [  0.000000000000000,  0.500000000000000,  0.000000000000000 ]
    mass: 137.327000
    reduced_to: 1
  - symbol: Ba # 10
    coordinates: [  0.250000000000000,  0.500000000000000,  0.000000000000000 ]
    mass: 137.327000
    reduced_to: 1
  - symbol: Ba # 11
    coordinates: [  0.500000000000000,  0.500000000000000,  0.000000000000000 ]
    mass: 137.327000
    reduced_to: 1
  - symbol: Ba # 12
    coordinates: [  0.750000000000000,  0.500000000000000,  0.000000000000000 ]
    mass: 137.327000
    reduced_to: 1
  - symbol: Ba # 13
    coordinates: [  0.000000000000000,  0.750000000000000,  0.000000000000000 ]
    mass: 137.327000
    reduced_to: 1
  - symbol: Ba # 14
    coordinates: [  0.250000000000000,  0.750000000000000,  0.000000000000000 ]
    mass: 137.327000
    reduced_to: 1
  - symbol: Ba # 15
    coordinates: [  0.500000000000000,  0.750000000000000,  0.000000000000000 ]
    mass: 137.327000
    reduced_to: 1
  - symbol: Ba # 16
    coordinates: [  0.750000000000000,  0.750000000000000,  0.000000000000000 ]
    mass: 137.327000
    reduced_to: 1
  - symbol: Ba # 17
    coordinates: [  0.000000000000000,  0.000000000000000,  0.250000000000000 ]
    mass: 137.327000
    reduced_to: 1
  - symbol: Ba # 18
    coordinates: [  0.250000000000000,  0.000000000000000,  0.250000000000000 ]
    mass: 137.327000
    reduced_to: 1
  - symbol: Ba # 19
    coordinates: [  0.500000000000000,  0.000000000000000,  0.250000000000000 ]
    mass: 137.327000
    reduced_to: 1
  - symbol: Ba # 20
    coordinates: [  0.750000000000000,  0.000000000000000,  0.250000000000000 ]
    mass: 137.327000
    reduced_to: 1
  - symbol: Ba # 21
    coordinates: [  0.000000000000000,  0.250000000000000,  0.250000000000000 ]
    mass: 137.327000
    reduced_to: 1
  - symbol: Ba # 22
    coordinates: [  0.250000000000000,  0.250000000000000,  0.250000000000000 ]
    mass: 137.327000
    reduced_to: 1
  - symbol: Ba # 23
    coordinates: [  0.500000000000000,  0.250000000000000,  0.250000000000000 ]
    mass: 137.327000
    reduced_to: 1
  - symbol: Ba # 24
    coordinates: [  0.750000000000000,  0.250000000000000,  0.250000000000000 ]
    mass: 137.327000
    reduced_to: 1
  - symbol: Ba # 25
    coordinates: [  0.000000000000000,  0.500000000000000,  0.250000000000000 ]
    mass: 137.327000
    reduced_to: 1
  - symbol: Ba # 26
    coordinates: [  0.250000000000000,  0.500000000000000,  0.250000000000000 ]
    mass: 137.327000
    reduced_to: 1
  - symbol: Ba # 27
    coordinates: [  0.500000000000000,  0.500000000000000,  0.250000000000000 ]
    mass: 137.327000
    reduced_to: 1
  - symbol: Ba # 28
    coordinates: [  0.750000000000000,  0.500000000000000,  0.250000000000000 ]
    mass: 137.327000
    reduced_to: 1
  - symbol: Ba # 29
    coordinates: [  0.000000000000000,  0.750000000000000,  0.250000000000000 ]
    mass: 137.327000
    reduced_to: 1
  - symbol: Ba # 30
    coordinates: [  0.250000000000000,  0.750000000000000,  0.250000000000000 ]
    mass: 137.327000
    reduced_to: 1
  - symbol: Ba # 31
    coordinates: [  0.500000000000000,  0.750000000000000,  0.250000000000000 ]
    mass: 137.327000
    reduced_to: 1
  - symbol: Ba # 32
    coordinates: [  0.750000000000000,  0.750000000000000,  0.250000000000000 ]
    mass: 137.327000
    reduced_to: 1
  - symbol: Ba # 33
    coordinates: [  0.000000000000000,  0.000000000000000,  0.500000000000000 ]
    mass: 137.327000
    reduced_to: 1
  - symbol: Ba # 34
    coordinates: [  0.250000000000000,  0.000000000000000,  0.500000000000000 ]
    mass: 137.327000
    reduced_to: 1
  - symbol: Ba # 35
    coordinates: [  0.500000000000000,  0.000000000000000,  0.500000000000000 ]
    mass: 137.327000
    reduced_to: 1
  - symbol: Ba # 36
    coordinates: [  0.750000000000000,  0.000000000000000,  0.500000000000000 ]
    mass: 137.327000
    reduced_to: 1
  - symbol: Ba # 37
    coordinates: [  0.000000000000000,  0.250000000000000,  0.500000000000000 ]
    mass: 137.327000
    reduced_to: 1
  - symbol: Ba # 38
    coordinates: [  0.250000000000000,  0.250000000000000,  0.500000000000000 ]
    mass: 137.327000
    reduced_to: 1
  - symbol: Ba # 39
    coordinates: [  0.500000000000000,  0.250000000000000,  0.500000000000000 ]
    mass: 137.327000
    reduced_to: 1
  - symbol: Ba # 40
    coordinates: [  0.750000000000000,  0.250000000000000,  0.500000000000000 ]
    mass: 137.327000
    reduced_to: 1
  - symbol: Ba # 41
    coordinates: [  0.000000000000000,  0.500000000000000,  0.500000000000000 ]
    mass: 137.327000
    reduced_to: 1
  - symbol: Ba # 42
    coordinates: [  0.250000000000000,  0.500000000000000,  0.500000000000000 ]
    mass: 137.327000
    reduced_to: 1
  - symbol: Ba # 43
    coordinates: [  0.500000000000000,  0.500000000000000,  0.500000000000000 ]
    mass: 137.327000
    reduced_to: 1
  - symbol: Ba # 44
    coordinates: [  0.750000000000000,  0.500000000000000,  0.500000000000000 ]
    mass: 137.327000
    reduced_to: 1
  - symbol: Ba # 45
    coordinates: [  0.000000000000000,  0.750000000000000,  0.500000000000000 ]
    mass: 137.327000
    reduced_to: 1
  - symbol: Ba # 46
    coordinates: [  0.250000000000000,  0.750000000000000,  0.500000000000000 ]
    mass: 137.327000
    reduced_to: 1
  - symbol: Ba # 47
    coordinates: [  0.500000000000000,  0.750000000000000,  0.500000000000000 ]
    mass: 137.327000
    reduced_to: 1
  - symbol: Ba # 48
    coordinates: [  0.750000000000000,  0.750000000000000,  0.500000000000000 ]
    mass: 137.327000
    reduced_to: 1
  - symbol: Ba # 49
    coordinates: [  0.000000000000000,  0.000000000000000,  0.750000000000000 ]
    mass: 137.327000
    reduced_to: 1
  - symbol: Ba # 50
    coordinates: [  0.250000000000000,  0.000000000000000,  0.750000000000000 ]
    mass: 137.327000
    reduced_to: 1
  - symbol: Ba # 51
    coordinates: [  0.500000000000000,  0.000000000000000,  0.750000000000000 ]
    mass: 137.327000
    reduced_to: 1
  - symbol: Ba # 52
    coordinates: [  0.750000000000000,  0.000000000000000,  0.750000000000000 ]
    mass: 137.327000
    reduced_to: 1
  - symbol: Ba # 53
    coordinates: [  0.000000000000000,  0.250000000000000,  0.750000000000000 ]
    mass: 137.327000
    reduced_to: 1
  - symbol: Ba # 54
    coordinates: [  0.250000000000000,  0.250000000000000,  0.750000000000000 ]
    mass: 137.327000
    reduced_to: 1
  - symbol: Ba # 55
    coordinates: [  0.500000000000000,  0.250000000000000,  0.750000000000000 ]
    mass: 137.327000
    reduced_to: 1
  - symbol: Ba # 56
    coordinates: [  0.750000000000000,  0.250000000000000,  0.750000000000000 ]
    mass: 137.327000
    reduced_to: 1
  - symbol: Ba # 57
    coordinates: [  0.000000000000000,  0.500000000000000,  0.750000000000000 ]
    mass: 137.327000
    reduced_to: 1
  - symbol: Ba # 58
    coordinates: [  0.250000000000000,  0.500000000000000,  0.750000000000000 ]
    mass: 137.327000
    reduced_to: 1
  - symbol: Ba # 59
    coordinates: [  0.500000000000000,  0.500000000000000,  0.750000000000000 ]
    mass: 137.327000
    reduced_to: 1
  - symbol: Ba # 60
    coordinates: [  0.750000000000000,  0.500000000000000,  0.750000000000000 ]
    mass: 137.327000
    reduced_to: 1
  - symbol: Ba # 61
    coordinates: [  0.000000000000000,  0.750000000000000,  0.750000000000000 ]
    mass: 137.327000
    reduced_to: 1
  - symbol: Ba # 62
    coordinates: [  0.250000000000000,  0.750000000000000,  0.750000000000000 ]
    mass: 137.327000
    reduced_to: 1
  - symbol: Ba # 63
    coordinates: [  0.500000000000000,  0.750000000000000,  0.750000000000000 ]
    mass: 137.327000
    reduced_to: 1
  - symbol: Ba # 64
    coordinates: [  0.750000000000000,  0.750000000000000,  0.750000000000000 ]
    mass: 137.327000
    reduced_to: 1
  - symbol: Ti # 65
    coordinates: [  0.125000000000000,  0.125000000000000,  0.125000000000000 ]
    mass: 47.867000
    reduced_to: 65
  - symbol: Ti # 66
    coordinates: [  0.375000000000000,  0.125000000000000,  0.125000000000000 ]
    mass: 47.867000
    reduced_to: 65
  - symbol: Ti # 67
    coordinates: [  0.625000000000000,  0.125000000000000,  0.125000000000000 ]
    mass: 47.867000
    reduced_to: 65
  - symbol: Ti # 68
    coordinates: [  0.875000000000000,  0.125000000000000,  0.125000000000000 ]
    mass: 47.867000
    reduced_to: 65
  - symbol: Ti # 69
    coordinates: [  0.125000000000000,  0.375000000000000,  0.125000000000000 ]
    mass: 47.867000
    reduced_to: 65
  - symbol: Ti # 70
    coordinates: [  0.375000000000000,  0.375000000000000,  0.125000000000000 ]
    mass: 47.867000
    reduced_to: 65
  - symbol: Ti # 71
    coordinates: [  0.625000000000000,  0.375000000000000,  0.125000000000000 ]
    mass: 47.867000
    reduced_to: 65
  - symbol: Ti # 72
    coordinates: [  0.875000000000000,  0.375000000000000,  0.125000000000000 ]
    mass: 47.867000
    reduced_to: 65
  - symbol: Ti # 73
    coordinates: [  0.125000000000000,  0.625000000000000,  0.125000000000000 ]
    mass: 47.867000
    reduced_to: 65
  - symbol: Ti # 74
    coordinates: [  0.375000000000000,  0.625000000000000,  0.125000000000000 ]
    mass: 47.867000
    reduced_to: 65
  - symbol: Ti # 75
    coordinates: [  0.625000000000000,  0.625000000000000,  0.125000000000000 ]
    mass: 47.867000
    reduced_to: 65
  - symbol: Ti # 76
    coordinates: [  0.875000000000000,  0.625000000000000,  0.125000000000000 ]
    mass: 47.867000
    reduced_to: 65
  - symbol: Ti # 77
    coordinates: [  0.125000000000000,  0.875000000000000,  0.125000000000000 ]
    mass: 47.867000
    reduced_to: 65
  - symbol: Ti # 78
    coordinates: [  0.375000000000000,  0.875000000000000,  0.125000000000000 ]
    mass: 47.867000
    reduced_to: 65
  - symbol: Ti # 79
    coordinates: [  0.625000000000000,  0.875000000000000,  0.125000000000000 ]
    mass: 47.867000
    reduced_to: 65
  - symbol: Ti # 80
    coordinates: [  0.875000000000000,  0.875000000000000,  0.125000000000000 ]
    mass: 47.867000
    reduced_to: 65
  - symbol: Ti # 81
    coordinates: [  0.125000000000000,  0.125000000000000,  0.375000000000000 ]
    mass: 47.867000
    reduced_to: 65
  - symbol: Ti # 82
    coordinates: [  0.375000000000000,  0.125000000000000,  0.375000000000000 ]
    mass: 47.867000
    reduced_to: 65
  - symbol: Ti # 83
    coordinates: [  0.625000000000000,  0.125000000000000,  0.375000000000000 ]
    mass: 47.867000
    reduced_to: 65
  - symbol: Ti # 84
    coordinates: [  0.875000000000000,  0.125000000000000,  0.375000000000000 ]
    mass: 47.867000
    reduced_to: 65
  - symbol: Ti # 85
    coordinates: [  0.125000000000000,  0.375000000000000,  0.375000000000000 ]
    mass: 47.867000
    reduced_to: 65
  - symbol: Ti # 86
    coordinates: [  0.375000000000000,  0.375000000000000,  0.375000000000000 ]
    mass: 47.867000
    reduced_to: 65
  - symbol: Ti # 87
    coordinates: [  0.625000000000000,  0.375000000000000,  0.375000000000000 ]
    mass: 47.867000
    reduced_to: 65
  - symbol: Ti # 88
    coordinates: [  0.875000000000000,  0.375000000000000,  0.375000000000000 ]
    mass: 47.867000
    reduced_to: 65
  - symbol: Ti # 89
    coordinates: [  0.125000000000000,  0.625000000000000,  0.375000000000000 ]
    mass: 47.867000
    reduced_to: 65
  - symbol: Ti # 90
    coordinates: [  0.375000000000000,  0.625000000000000,  0.375000000000000 ]
    mass: 47.867000
    reduced_to: 65
  - symbol: Ti # 91
    coordinates: [  0.625000000000000,  0.625000000000000,  0.375000000000000 ]
    mass: 47.867000
    reduced_to: 65
  - symbol: Ti # 92
    coordinates: [  0.875000000000000,  0.625000000000000,  0.375000000000000 ]
    mass: 47.867000
    reduced_to: 65
  - symbol: Ti # 93
    coordinates: [  0.125000000000000,  0.875000000000000,  0.375000000000000 ]
    mass: 47.867000
    reduced_to: 65
  - symbol: Ti # 94
    coordinates: [  0.375000000000000,  0.875000000000000,  0.375000000000000 ]
    mass: 47.867000
    reduced_to: 65
  - symbol: Ti # 95
    coordinates: [  0.625000000000000,  0.875000000000000,  0.375000000000000 ]
    mass: 47.867000
    reduced_to: 65
  - symbol: Ti # 96
    coordinates: [  0.875000000000000,  0.875000000000000,  0.375000000000000 ]
    mass: 47.867000
    reduced_to: 65
  - symbol: Ti # 97
    coordinates: [  0.125000000000000,  0.125000000000000,  0.625000000000000 ]
    mass: 47.867000
    reduced_to: 65
  - symbol: Ti # 98
    coordinates: [  0.375000000000000,  0.125000000000000,  0.625000000000000 ]
    mass: 47.867000
    reduced_to: 65
  - symbol: Ti # 99
    coordinates: [  0.625000000000000,  0.125000000000000,  0.625000000000000 ]
    mass: 47.867000
    reduced_to: 65
  - symbol: Ti # 100
    coordinates: [  0.875000000000000,  0.125000000000000,  0.625000000000000 ]
    mass: 47.867000
    reduced_to: 65
  - symbol: Ti # 101
    coordinates: [  0.125000000000000,  0.375000000000000,  0.625000000000000 ]
    mass: 47.867000
    reduced_to: 65
  - symbol: Ti # 102
    coordinates: [  0.375000000000000,  0.375000000000000,  0.625000000000000 ]
    mass: 47.867000
    reduced_to: 65
  - symbol: Ti # 103
    coordinates: [  0.625000000000000,  0.375000000000000,  0.625000000000000 ]
    mass: 47.867000
    reduced_to: 65
  - symbol: Ti # 104
    coordinates: [  0.875000000000000,  0.375000000000000,  0.625000000000000 ]
    mass: 47.867000
    reduced_to: 65
  - symbol: Ti # 105
    coordinates: [  0.125000000000000,  0.625000000000000,  0.625000000000000 ]
    mass: 47.867000
    reduced_to: 65
  - symbol: Ti # 106
    coordinates: [  0.375000000000000,  0.625000000000000,  0.625000000000000 ]
    mass: 47.867000
    reduced_to: 65
  - symbol: Ti # 107
    coordinates: [  0.625000000000000,  0.625000000000000,  0.625000000000000 ]
    mass: 47.867000
    reduced_to: 65
  - symbol: Ti # 108
    coordinates: [  0.875000000000000,  0.625000000000000,  0.625000000000000 ]
    mass: 47.867000
    reduced_to: 65
  - symbol: Ti # 109
    coordinates: [  0.125000000000000,  0.875000000000000,  0.625000000000000 ]
    mass: 47.867000
    reduced_to: 65
  - symbol: Ti # 110
    coordinates: [  0.375000000000000,  0.875000000000000,  0.625000000000000 ]
    mass: 47.867000
    reduced_to: 65
  - symbol: Ti # 111
    coordinates: [  0.625000000000000,  0.875000000000000,  0.625000000000000 ]
    mass: 47.867000
    reduced_to: 65
  - symbol: Ti # 112
    coordinates: [  0.875000000000000,  0.875000000000000,  0.625000000000000 ]
    mass: 47.867000
    reduced_to: 65
  - symbol: Ti # 113
    coordinates: [  0.125000000000000,  0.125000000000000,  0.875000000000000 ]
    mass: 47.867000
    reduced_to: 65
  - symbol: Ti # 114
    coordinates: [  0.375000000000000,  0.125000000000000,  0.875000000000000 ]
    mass: 47.867000
    reduced_to: 65
  - symbol: Ti # 115
    coordinates: [  0.625000000000000,  0.125000000000000,  0.875000000000000 ]
    mass: 47.867000
    reduced_to: 65
  - symbol: Ti # 116
    coordinates: [  0.875000000000000,  0.125000000000000,  0.875000000000000 ]
    mass: 47.867000
    reduced_to: 65
  - symbol: Ti # 117
    coordinates: [  0.125000000000000,  0.375000000000000,  0.875000000000000 ]
    mass: 47.867000
    reduced_to: 65
  - symbol: Ti # 118
    coordinates: [  0.375000000000000,  0.375000000000000,  0.875000000000000 ]
    mass: 47.867000
    reduced_to: 65
  - symbol: Ti # 119
    coordinates: [  0.625000000000000,  0.375000000000000,  0.875000000000000 ]
    mass: 47.867000
    reduced_to: 65
  - symbol: Ti # 120
    coordinates: [  0.875000000000000,  0.375000000000000,  0.875000000000000 ]
    mass: 47.867000
    reduced_to: 65
  - symbol: Ti # 121
    coordinates: [  0.125000000000000,  0.625000000000000,  0.875000000000000 ]
    mass: 47.867000
    reduced_to: 65
  - symbol: Ti # 122
    coordinates: [  0.375000000000000,  0.625000000000000,  0.875000000000000 ]
    mass: 47.867000
    reduced_to: 65
  - symbol: Ti # 123
    coordinates: [  0.625000000000000,  0.625000000000000,  0.875000000000000 ]
    mass: 47.867000
    reduced_to: 65
  - symbol: Ti # 124
    coordinates: [  0.875000000000000,  0.625000000000000,  0.875000000000000 ]
    mass: 47.867000
    reduced_to: 65
  - symbol: Ti # 125
    coordinates: [  0.125000000000000,  0.875000000000000,  0.875000000000000 ]
    mass: 47.867000
    reduced_to: 65
  - symbol: Ti # 126
    coordinates: [  0.375000000000000,  0.875000000000000,  0.875000000000000 ]
    mass: 47.867000
    reduced_to: 65
  - symbol: Ti # 127
    coordinates: [  0.625000000000000,  0.875000000000000,  0.875000000000000 ]
    mass: 47.867000
    reduced_to: 65
  - symbol: Ti # 128
    coordinates: [  0.875000000000000,  0.875000000000000,  0.875000000000000 ]
    mass: 47.867000
    reduced_to: 65
  - symbol: O  # 129
    coordinates: [  0.125000000000000,  0.125000000000000,  0.000000000000000 ]
    mass: 15.999400
    reduced_to: 129
  - symbol: O  # 130
    coordinates: [  0.375000000000000,  0.125000000000000,  0.000000000000000 ]
    mass: 15.999400
    reduced_to: 129
  - symbol: O  # 131
    coordinates: [  0.625000000000000,  0.125000000000000,  0.000000000000000 ]
    mass: 15.999400
    reduced_to: 129
  - symbol: O  # 132
    coordinates: [  0.875000000000000,  0.125000000000000,  0.000000000000000 ]
    mass: 15.999400
    reduced_to: 129
  - symbol: O  # 133
    coordinates: [  0.125000000000000,  0.375000000000000,  0.000000000000000 ]
    mass: 15.999400
    reduced_to: 129
  - symbol: O  # 134
    coordinates: [  0.375000000000000,  0.375000000000000,  0.000000000000000 ]
    mass: 15.999400
    reduced_to: 129
  - symbol: O  # 135
    coordinates: [  0.625000000000000,  0.375000000000000,  0.000000000000000 ]
    mass: 15.999400
    reduced_to: 129
  - symbol: O  # 136
    coordinates: [  0.875000000000000,  0.375000000000000,  0.000000000000000 ]
    mass: 15.999400
    reduced_to: 129
  - symbol: O  # 137
    coordinates: [  0.125000000000000,  0.625000000000000,  0.000000000000000 ]
    mass: 15.999400
    reduced_to: 129
  - symbol: O  # 138
    coordinates: [  0.375000000000000,  0.625000000000000,  0.000000000000000 ]
    mass: 15.999400
    reduced_to: 129
  - symbol: O  # 139
    coordinates: [  0.625000000000000,  0.625000000000000,  0.000000000000000 ]
    mass: 15.999400
    reduced_to: 129
  - symbol: O  # 140
    coordinates: [  0.875000000000000,  0.625000000000000,  0.000000000000000 ]
    mass: 15.999400
    reduced_to: 129
  - symbol: O  # 141
    coordinates: [  0.125000000000000,  0.875000000000000,  0.000000000000000 ]
    mass: 15.999400
    reduced_to: 129
  - symbol: O  # 142
    coordinates: [  0.375000000000000,  0.875000000000000,  0.000000000000000 ]
    mass: 15.999400
    reduced_to: 129
  - symbol: O  # 143
    coordinates: [  0.625000000000000,  0.875000000000000,  0.000000000000000 ]
    mass: 15.999400
    reduced_to: 129
  - symbol: O  # 144
    coordinates: [  0.875000000000000,  0.875000000000000,  0.000000000000000 ]
    mass: 15.999400
    reduced_to: 129
  - symbol: O  # 145
    coordinates: [  0.125000000000000,  0.125000000000000,  0.250000000000000 ]
    mass: 15.999400
    reduced_to: 129
  - symbol: O  # 146
    coordinates: [  0.375000000000000,  0.125000000000000,  0.250000000000000 ]
    mass: 15.999400
    reduced_to: 129
  - symbol: O  # 147
    coordinates: [  0.625000000000000,  0.125000000000000,  0.250000000000000 ]
    mass: 15.999400
    reduced_to: 129
  - symbol: O  # 148
    coordinates: [  0.875000000000000,  0.125000000000000,  0.250000000000000 ]
    mass: 15.999400
    reduced_to: 129
  - symbol: O  # 149
    coordinates: [  0.125000000000000,  0.375000000000000,  0.250000000000000 ]
    mass: 15.999400
    reduced_to: 129
  - symbol: O  # 150
    coordinates: [  0.375000000000000,  0.375000000000000,  0.250000000000000 ]
    mass: 15.999400
    reduced_to: 129
  - symbol: O  # 151
    coordinates: [  0.625000000000000,  0.375000000000000,  0.250000000000000 ]
    mass: 15.999400
    reduced_to: 129
  - symbol: O  # 152
    coordinates: [  0.875000000000000,  0.375000000000000,  0.250000000000000 ]
    mass: 15.999400
    reduced_to: 129
  - symbol: O  # 153
    coordinates: [  0.125000000000000,  0.625000000000000,  0.250000000000000 ]
    mass: 15.999400
    reduced_to: 129
  - symbol: O  # 154
    coordinates: [  0.375000000000000,  0.625000000000000,  0.250000000000000 ]
    mass: 15.999400
    reduced_to: 129
  - symbol: O  # 155
    coordinates: [  0.625000000000000,  0.625000000000000,  0.250000000000000 ]
    mass: 15.999400
    reduced_to: 129
  - symbol: O  # 156
    coordinates: [  0.875000000000000,  0.625000000000000,  0.250000000000000 ]
    mass: 15.999400
    reduced_to: 129
  - symbol: O  # 157
    coordinates: [  0.125000000000000,  0.875000000000000,  0.250000000000000 ]
    mass: 15.999400
    reduced_to: 129
  - symbol: O  # 158
    coordinates: [  0.375000000000000,  0.875000000000000,  0.250000000000000 ]
    mass: 15.999400
    reduced_to: 129
  - symbol: O  # 159
    coordinates: [  0.625000000000000,  0.875000000000000,  0.250000000000000 ]
    mass: 15.999400
    reduced_to: 129
  - symbol: O  # 160
    coordinates: [  0.875000000000000,  0.875000000000000,  0.250000000000000 ]
    mass: 15.999400
    reduced_to: 129
  - symbol: O  # 161
    coordinates: [  0.125000000000000,  0.125000000000000,  0.500000000000000 ]
    mass: 15.999400
    reduced_to: 129
  - symbol: O  # 162
    coordinates: [  0.375000000000000,  0.125000000000000,  0.500000000000000 ]
    mass: 15.999400
    reduced_to: 129
  - symbol: O  # 163
    coordinates: [  0.625000000000000,  0.125000000000000,  0.500000000000000 ]
    mass: 15.999400
    reduced_to: 129
  - symbol: O  # 164
    coordinates: [  0.875000000000000,  0.125000000000000,  0.500000000000000 ]
    mass: 15.999400
    reduced_to: 129
  - symbol: O  # 165
    coordinates: [  0.125000000000000,  0.375000000000000,  0.500000000000000 ]
    mass: 15.999400
    reduced_to: 129
  - symbol: O  # 166
    coordinates: [  0.375000000000000,  0.375000000000000,  0.500000000000000 ]
    mass: 15.999400
    reduced_to: 129
  - symbol: O  # 167
    coordinates: [  0.625000000000000,  0.375000000000000,  0.500000000000000 ]
    mass: 15.999400
    reduced_to: 129
  - symbol: O  # 168
    coordinates: [  0.875000000000000,  0.375000000000000,  0.500000000000000 ]
    mass: 15.999400
    reduced_to: 129
  - symbol: O  # 169
    coordinates: [  0.125000000000000,  0.625000000000000,  0.500000000000000 ]
    mass: 15.999400
    reduced_to: 129
  - symbol: O  # 170
    coordinates: [  0.375000000000000,  0.625000000000000,  0.500000000000000 ]
    mass: 15.999400
    reduced_to: 129
  - symbol: O  # 171
    coordinates: [  0.625000000000000,  0.625000000000000,  0.500000000000000 ]
    mass: 15.999400
    reduced_to: 129
  - symbol: O  # 172
    coordinates: [  0.875000000000000,  0.625000000000000,  0.500000000000000 ]
    mass: 15.999400
    reduced_to: 129
  - symbol: O  # 173
    coordinates: [  0.125000000000000,  0.875000000000000,  0.500000000000000 ]
    mass: 15.999400
    reduced_to: 129
  - symbol: O  # 174
    coordinates: [  0.375000000000000,  0.875000000000000,  0.500000000000000 ]
    mass: 15.999400
    reduced_to: 129
  - symbol: O  # 175
    coordinates: [  0.625000000000000,  0.875000000000000,  0.500000000000000 ]
    mass: 15.999400
    reduced_to: 129
  - symbol: O  # 176
    coordinates: [  0.875000000000000,  0.875000000000000,  0.500000000000000 ]
    mass: 15.999400
    reduced_to: 129
  - symbol: O  # 177
    coordinates: [  0.125000000000000,  0.125000000000000,  0.750000000000000 ]
    mass: 15.999400
    reduced_to: 129
  - symbol: O  # 178
    coordinates: [  0.375000000000000,  0.125000000000000,  0.750000000000000 ]
    mass: 15.999400
    reduced_to: 129
  - symbol: O  # 179
    coordinates: [  0.625000000000000,  0.125000000000000,  0.750000000000000 ]
    mass: 15.999400
    reduced_to: 129
  - symbol: O  # 180
    coordinates: [  0.875000000000000,  0.125000000000000,  0.750000000000000 ]
    mass: 15.999400
    reduced_to: 129
  - symbol: O  # 181
    coordinates: [  0.125000000000000,  0.375000000000000,  0.750000000000000 ]
    mass: 15.999400
    reduced_to: 129
  - symbol: O  # 182
    coordinates: [  0.375000000000000,  0.375000000000000,  0.750000000000000 ]
    mass: 15.999400
    reduced_to: 129
  - symbol: O  # 183
    coordinates: [  0.625000000000000,  0.375000000000000,  0.750000000000000 ]
    mass: 15.999400
    reduced_to: 129
  - symbol: O  # 184
    coordinates: [  0.875000000000000,  0.375000000000000,  0.750000000000000 ]
    mass: 15.999400
    reduced_to: 129
  - symbol: O  # 185
    coordinates: [  0.125000000000000,  0.625000000000000,  0.750000000000000 ]
    mass: 15.999400
    reduced_to: 129
  - symbol: O  # 186
    coordinates: [  0.375000000000000,  0.625000000000000,  0.750000000000000 ]
    mass: 15.999400
    reduced_to: 129
  - symbol: O  # 187
    coordinates: [  0.625000000000000,  0.625000000000000,  0.750000000000000 ]
    mass: 15.999400
    reduced_to: 129
  - symbol: O  # 188
    coordinates: [  0.875000000000000,  0.625000000000000,  0.750000000000000 ]
    mass: 15.999400
    reduced_to: 129
  - symbol: O  # 189
    coordinates: [  0.125000000000000,  0.875000000000000,  0.750000000000000 ]
    mass: 15.999400
    reduced_to: 129
  - symbol: O  # 190
    coordinates: [  0.375000000000000,  0.875000000000000,  0.750000000000000 ]
    mass: 15.999400
    reduced_to: 129
  - symbol: O  # 191
    coordinates: [  0.625000000000000,  0.875000000000000,  0.750000000000000 ]
    mass: 15.999400
    reduced_to: 129
  - symbol: O  # 192
    coordinates: [  0.875000000000000,  0.875000000000000,  0.750000000000000 ]
    mass: 15.999400
    reduced_to: 129
  - symbol: O  # 193
    coordinates: [  0.000000000000000,  0.125000000000000,  0.125000000000000 ]
    mass: 15.999400
    reduced_to: 193
  - symbol: O  # 194