
             +---------------------------------------------------+
             |                                                   |
             |                   WANNIER90                       |
             |                                                   |
             +---------------------------------------------------+
             |                                                   |
             |        Welcome to the Maximally-Localized         |
             |        Generalized Wannier Functions code         |
             |            http://www.wannier.org                 |
             |                                                   |
             |  Wannier90 v2.x Authors:                          |
             |    Arash A. Mostofi  (Imperial College London)    |
             |    Giovanni Pizzi    (EPFL)                       |
             |    Ivo Souza         (Universidad del Pais Vasco) |
             |    Jonathan R. Yates (University of Oxford)       |
             |                                                   |
             |  Wannier90 Contributors:                          |
             |    Young-Su Lee       (KIST, S. Korea)            |
             |    Matthew Shelley    (Imperial College London)   |
             |    Nicolas Poilvert   (Penn State University)     |
             |    Raffaello Bianco   (Paris 6 and CNRS)          |
             |    Gabriele Sclauzero (ETH Zurich)                |
             |    David Strubbe (MIT, USA)                       |
             |    Rei Sakuma (Lund University, Sweden)           |
             |    Yusuke Nomura (U. Tokyo, Japan)                |
             |    Takashi Koretsune (Riken, Japan)               |
             |    Yoshiro Nohara (ASMS Co. Ltd., Japan)          |
             |    Ryotaro Arita (Riken, Japan)                   |
             |    Lorenzo Paulatto (UPMC Paris)                  |
             |    Florian Thole (ETH Zurich)                     |
             |    Pablo Garcia Fernandez (Unican, Spain)         |
             |    Dominik Gresch (ETH Zurich)                    |
             |    Samuel Ponce (University of Oxford)            |
             |    Marco Gibertini (EPFL)                         |
             |    Christian Stieger (ETHZ, CH)                   |
             |    Stepan Tsirkin (Universidad del Pais Vasco)    |
             |                                                   |
             |  Wannier77 Authors:                               |
             |    Nicola Marzari    (EPFL)                       |
             |    Ivo Souza         (Universidad del Pais Vasco) |
             |    David Vanderbilt  (Rutgers University)         |
             |                                                   |
             |  Please cite                                      |
             |                                                   |
             |  [ref] "An updated version of Wannier90:          |
             |        A Tool for Obtaining Maximally Localised   |
             |        Wannier Functions", A. A. Mostofi,         |
             |        J. R. Yates, G. Pizzi, Y. S. Lee,          |
             |        I. Souza, D. Vanderbilt and N. Marzari,    |
             |        Comput. Phys. Commun. 185, 2309 (2014)     |
             |        http://dx.doi.org/10.1016/j.cpc.2014.05.003|
             |                                                   |
             |  in any publications arising from the use of      |
             |  this code. For the method please cite            |
             |                                                   |
             |  [ref] "Maximally Localized Generalised Wannier   |
             |         Functions for Composite Energy Bands"     |
             |         N. Marzari and D. Vanderbilt              |
             |         Phys. Rev. B 56 12847 (1997)              |
             |                                                   |
             |  [ref] "Maximally Localized Wannier Functions     |
             |         for Entangled Energy Bands"               |
             |         I. Souza, N. Marzari and D. Vanderbilt    |
             |         Phys. Rev. B 65 035109 (2001)             |
             |                                                   |
             |                                                   |
             | Copyright (c) 1996-2017                           |
             |        Arash A. Mostofi, Jonathan R. Yates,       |
             |        Young-Su Lee, Giovanni Pizzi, Ivo Souza,   |
             |        David Vanderbilt and Nicola Marzari        |
             |                                                   |
             |      Release: 2.1.0+git   13th January 2017       |
             |                                                   |
             | This program is free software; you can            |
             | redistribute it and/or modify it under the terms  |
             | of the GNU General Public License as published by |
             | the Free Software Foundation; either version 2 of |
             | the License, or (at your option) any later version|
             |                                                   |
             | This program is distributed in the hope that it   |
             | will be useful, but WITHOUT ANY WARRANTY; without |
             | even the implied warranty of MERCHANTABILITY or   |
             | FITNESS FOR A PARTICULAR PURPOSE. See the GNU     |
             | General Public License for more details.          |
             |                                                   |
             | You should have received a copy of the GNU General|
             | Public License along with this program; if not,   |
             | write to the Free Software Foundation, Inc.,      |
             | 675 Mass Ave, Cambridge, MA 02139, USA.           |
             |                                                   |
             +---------------------------------------------------+
             |    Execution started on  6Jan2020 at 23:07:42     |
             +---------------------------------------------------+
 
 ******************************************************************************
 * -> Using CODATA 2006 constant values                                       *
 *    (http://physics.nist.gov/cuu/Constants/index.html)                      *
 * -> Using Bohr value from CODATA                                            *
 ******************************************************************************
 

 Running in serial (with parallel executable)

                                    ------
                                    SYSTEM
                                    ------

                              Lattice Vectors (Ang)
                    a_1     3.809985  -0.000000  -0.000000
                    a_2     0.000000   3.809985   0.000000
                    a_3     0.000000   0.000000   3.809985

                   Unit Cell Volume:      55.30567  (Ang^3)

                        Reciprocal-Space Vectors (Ang^-1)
                    b_1     1.649137   0.000000   0.000000
                    b_2     0.000000   1.649137  -0.000000
                    b_3     0.000000  -0.000000   1.649137
  
 *----------------------------------------------------------------------------*
 |   Site       Fractional Coordinate          Cartesian Coordinate (Ang)     |
 +----------------------------------------------------------------------------+
 | Sr   1   0.00000   0.00000   0.00000   |    0.00000   0.00000   0.00000    |
 | Mn   1   0.50000   0.50000   0.50000   |    1.90499   1.90499   1.90499    |
 | O    1   0.50000   0.50000   0.00000   |    1.90499   1.90499   0.00000    |
 | O    2   0.00000   0.50000   0.50000   |    0.00000   1.90499   1.90499    |
 | O    3   0.50000   0.00000   0.50000   |    1.90499   0.00000   1.90499    |
 *----------------------------------------------------------------------------*
                                ------------
                                K-POINT GRID
                                ------------
  
             Grid size =  4 x  4 x  4      Total points =   64
  
  
 *---------------------------------- MAIN ------------------------------------*
 |  Number of Wannier Functions               :                14             |
 |  Number of Objective Wannier Functions     :                14             |
 |  Number of input Bloch states              :                32             |
 |  Output verbosity (1=low, 5=high)          :                 1             |
 |  Timing Level (1=low, 5=high)              :                 1             |
 |  Optimisation (0=memory, 3=speed)          :                 3             |
 |  Length Unit                               :               Ang             |
 |  Post-processing setup (write *.nnkp)      :                 F             |
 |  Using Gamma-only branch of algorithms     :                 F             |
 *----------------------------------------------------------------------------*
 *------------------------------- WANNIERISE ---------------------------------*
 |  Total number of iterations                :               300             |
 |  Number of CG steps before reset           :                 5             |
 |  Trial step length for line search         :             2.000             |
 |  Convergence tolerence                     :         0.100E-09             |
 |  Convergence window                        :                -1             |
 |  Iterations between writing output         :                 1             |
 |  Iterations between backing up to disk     :               100             |
 |  Write r^2_nm to file                      :                 F             |
 |  Write xyz WF centres to file              :                 T             |
 |  Write on-site energies <0n|H|0n> to file  :                 F             |
 |  Use guiding centre to control phases      :                 T             |
 |  Use phases for initial projections        :                 F             |
 |  Iterations before starting guiding centres:                 0             |
 |  Iterations between using guiding centres  :                 1             |
 *----------------------------------------------------------------------------*
 *------------------------------- DISENTANGLE --------------------------------*
 |  Using band disentanglement                :                 T             |
 |  Total number of iterations                :               200             |
 |  Mixing ratio                              :             0.500             |
 |  Convergence tolerence                     :         1.000E-10             |
 |  Convergence window                        :                 3             |
 *----------------------------------------------------------------------------*
 *-------------------------------- PLOTTING ----------------------------------*
 |  Plotting Hamiltonian in WF basis          :                 T             |
 *----------------------------------------------------------------------------*
 Time to read parameters        0.015 (sec)

 *---------------------------------- K-MESH ----------------------------------*
 +----------------------------------------------------------------------------+
 |                    Distance to Nearest-Neighbour Shells                    |
 |                    ------------------------------------                    |
 |          Shell             Distance (Ang^-1)          Multiplicity         |
 |          -----             -----------------          ------------         |
 |             1                   0.412284                      6            |
 |             2                   0.583058                     12            |
 |             3                   0.714097                      8            |
 |             4                   0.824568                      6            |
 |             5                   0.921895                     24            |
 |             6                   1.009886                     24            |
 |             7                   1.166116                     12            |
 |             8                   1.236852                     30            |
 |             9                   1.303757                     24            |
 |            10                   1.367392                     24            |
 |            11                   1.428194                      8            |
 |            12                   1.486512                     24            |
 |            13                   1.542626                     48            |
 |            14                   1.649137                      6            |
 |            15                   1.699891                     48            |
 |            16                   1.749174                     36            |
 |            17                   1.797105                     24            |
 |            18                   1.843791                     24            |
 |            19                   1.889323                     48            |
 |            20                   1.933784                     24            |
 |            21                   2.019772                     24            |
 |            22                   2.061421                     30            |
 |            23                   2.102245                     72            |
 |            24                   2.142291                     32            |
 +----------------------------------------------------------------------------+
 | The b-vectors are chosen automatically                                     |
 | The following shells are used:   1                                         |
 +----------------------------------------------------------------------------+
 |                        Shell   # Nearest-Neighbours                        |
 |                        -----   --------------------                        |
 |                          1               6                                 |
 +----------------------------------------------------------------------------+
 | Completeness relation is fully satisfied [Eq. (B1), PRB 56, 12847 (1997)]  |
 +----------------------------------------------------------------------------+
 |                  b_k Vectors (Ang^-1) and Weights (Ang^2)                  |
 |                  ----------------------------------------                  |
 |            No.         b_k(x)      b_k(y)      b_k(z)        w_b           |
 |            ---        --------------------------------     --------        |
 |             1         0.412284    0.000000    0.000000     2.941553        |
 |             2        -0.412284    0.000000    0.000000     2.941553        |
 |             3         0.000000    0.412284    0.000000     2.941553        |
 |             4         0.000000   -0.412284    0.000000     2.941553        |
 |             5         0.000000    0.000000    0.412284     2.941553        |
 |             6         0.000000    0.000000   -0.412284     2.941553        |
 +----------------------------------------------------------------------------+
 |                           b_k Directions (Ang^-1)                          |
 |                           -----------------------                          |
 |            No.           x           y           z                         |
 |            ---        --------------------------------                     |
 |             1         0.412284    0.000000    0.000000                     |
 |             2         0.000000    0.412284    0.000000                     |
 |             3         0.000000    0.000000    0.412284                     |
 +----------------------------------------------------------------------------+
  
 Time to get kmesh              0.033 (sec)
 *============================================================================*
 |                              MEMORY ESTIMATE                               |
 |         Maximum RAM allocated during each phase of the calculation         |
 *============================================================================*
 |                        Disentanglement            9.18 Mb                  |
 |                            Wannierise:            3.76 Mb                  |
 |                          plot_wannier:            3.76 Mb                  |
 *----------------------------------------------------------------------------*
  
 Starting a new Wannier90 calculation ...


 Reading overlaps from abinito_w90_down.mmn    :  nnkp version 90

 Reading projections from abinito_w90_down.amn :  Projections from Abinit : mband,nkpt,nwan. indice

 Time to read overlaps          1.010 (sec)

 *------------------------------- DISENTANGLE --------------------------------*
 +----------------------------------------------------------------------------+
 |                              Energy  Windows                               |
 |                              ---------------                               |
 |                   Outer:   -3.85000  to   16.15000  (eV)                   |
 |                   Inner:    1.15000  to   11.15000  (eV)                   |
 +----------------------------------------------------------------------------+
   Number of target bands to extract:   14

                   Unitarised projection of Wannier functions                  
                   ------------------------------------------                  
   A_mn = <psi_m|g_n> --> S = A.A^+ --> U = S^-1/2.A
   In dis_project... done
   Using an inner window (linner = T)
   In dis_proj_froz... done

                   Extraction of optimally-connected subspace                  
                   ------------------------------------------                  
 +---------------------------------------------------------------------+<-- DIS
 |  Iter     Omega_I(i-1)      Omega_I(i)      Delta (frac.)    Time   |<-- DIS
 +---------------------------------------------------------------------+<-- DIS
       1      10.83589912      10.79169823       4.096E-03      0.00    <-- DIS
       2      10.79806702      10.78260266       1.434E-03      0.01    <-- DIS
       3      10.78774418      10.77694894       1.002E-03      0.02    <-- DIS
       4      10.78070808      10.77334028       6.839E-04      0.04    <-- DIS
       5      10.77598375      10.77100717       4.620E-04      0.05    <-- DIS
       6      10.77283300      10.76948721       3.107E-04      0.06    <-- DIS
       7      10.77073785      10.76849238       2.085E-04      0.07    <-- DIS
       8      10.76934620      10.76783940       1.399E-04      0.08    <-- DIS
       9      10.76842203      10.76741008       9.398E-05      0.10    <-- DIS
      10      10.76780815      10.76712751       6.321E-05      0.11    <-- DIS
      11      10.76740016      10.76694141       4.261E-05      0.12    <-- DIS
      12      10.76712881      10.76681880       2.879E-05      0.13    <-- DIS
      13      10.76694817      10.76673801       1.952E-05      0.14    <-- DIS
      14      10.76682778      10.76668476       1.328E-05      0.16    <-- DIS
      15      10.76674743      10.76664966       9.081E-06      0.17    <-- DIS
      16      10.76669372      10.76662652       6.241E-06      0.18    <-- DIS
      17      10.76665773      10.76661127       4.316E-06      0.19    <-- DIS
      18      10.76663357      10.76660122       3.005E-06      0.20    <-- DIS
      19      10.76661729      10.76659459       2.109E-06      0.22    <-- DIS
      20      10.76660629      10.76659022       1.492E-06      0.23    <-- DIS
      21      10.76659882      10.76658734       1.066E-06      0.24    <-- DIS
      22      10.76659372      10.76658544       7.690E-07      0.25    <-- DIS
      23      10.76659022      10.76658419       5.604E-07      0.26    <-- DIS
      24      10.76658781      10.76658337       4.126E-07      0.28    <-- DIS
      25      10.76658613      10.76658282       3.069E-07      0.29    <-- DIS
      26      10.76658495      10.76658246       2.306E-07      0.30    <-- DIS
      27      10.76658411      10.76658223       1.749E-07      0.31    <-- DIS
      28      10.76658351      10.76658207       1.338E-07      0.32    <-- DIS
      29      10.76658308      10.76658197       1.033E-07      0.34    <-- DIS
      30      10.76658277      10.76658190       8.029E-08      0.35    <-- DIS
      31      10.76658253      10.76658186       6.282E-08      0.36    <-- DIS
      32      10.76658236      10.76658183       4.945E-08      0.38    <-- DIS
      33      10.76658223      10.76658181       3.911E-08      0.39    <-- DIS
      34      10.76658213      10.76658179       3.107E-08      0.40    <-- DIS
      35      10.76658205      10.76658179       2.478E-08      0.41    <-- DIS
      36      10.76658199      10.76658178       1.982E-08      0.42    <-- DIS
      37      10.76658195      10.76658178       1.589E-08      0.44    <-- DIS
      38      10.76658191      10.76658177       1.278E-08      0.45    <-- DIS
      39      10.76658188      10.76658177       1.029E-08      0.46    <-- DIS
      40      10.76658186      10.76658177       8.295E-09      0.47    <-- DIS
      41      10.76658184      10.76658177       6.697E-09      0.48    <-- DIS
      42      10.76658183      10.76658177       5.413E-09      0.50    <-- DIS
      43      10.76658182      10.76658177       4.378E-09      0.51    <-- DIS
      44      10.76658181      10.76658177       3.544E-09      0.52    <-- DIS
      45      10.76658180      10.76658177       2.870E-09      0.53    <-- DIS
      46      10.76658180      10.76658177       2.326E-09      0.55    <-- DIS
      47      10.76658179      10.76658177       1.885E-09      0.56    <-- DIS
      48      10.76658179      10.76658177       1.528E-09      0.57    <-- DIS
      49      10.76658178      10.76658177       1.240E-09      0.58    <-- DIS
      50      10.76658178      10.76658177       1.006E-09      0.59    <-- DIS
      51      10.76658178      10.76658177       8.158E-10      0.61    <-- DIS
      52      10.76658178      10.76658177       6.620E-10      0.62    <-- DIS
      53      10.76658178      10.76658177       5.372E-10      0.63    <-- DIS
      54      10.76658177      10.76658177       4.360E-10      0.64    <-- DIS
      55      10.76658177      10.76658177       3.539E-10      0.65    <-- DIS
      56      10.76658177      10.76658177       2.873E-10      0.67    <-- DIS
      57      10.76658177      10.76658177       2.332E-10      0.68    <-- DIS
      58      10.76658177      10.76658177       1.893E-10      0.69    <-- DIS
      59      10.76658177      10.76658177       1.537E-10      0.70    <-- DIS
      60      10.76658177      10.76658177       1.248E-10      0.71    <-- DIS
      61      10.76658177      10.76658177       1.013E-10      0.73    <-- DIS
      62      10.76658177      10.76658177       8.222E-11      0.74    <-- DIS
      63      10.76658177      10.76658177       6.675E-11      0.75    <-- DIS
      64      10.76658177      10.76658177       5.420E-11      0.76    <-- DIS

             <<<      Delta < 1.000E-10  over  3 iterations     >>>
             <<< Disentanglement convergence criteria satisfied >>>

        Final Omega_I    10.76658177 (Ang^2)

 +----------------------------------------------------------------------------+

 Time to disentangle bands      0.814 (sec)

 Writing checkpoint file abinito_w90_down.chk... done


 *------------------------------- WANNIERISE ---------------------------------*
 +--------------------------------------------------------------------+<-- CONV
 | Iter  Delta Spread     RMS Gradient      Spread (Ang^2)      Time  |<-- CONV
 +--------------------------------------------------------------------+<-- CONV

 ------------------------------------------------------------------------------
 Initial State
  WF centre and spread    1  (  1.904992,  1.904992,  1.904992 )     0.52301951
  WF centre and spread    2  (  1.904992,  1.904992,  1.904992 )     0.64604627
  WF centre and spread    3  (  1.904992,  1.904992,  1.904992 )     0.64604627
  WF centre and spread    4  (  1.904992,  1.904992,  1.904992 )     0.52301956
  WF centre and spread    5  (  1.904992,  1.904992,  1.904992 )     0.64604627
  WF centre and spread    6  (  1.904992,  1.904992, -0.000000 )     0.74950200
  WF centre and spread    7  (  1.904992,  1.904992,  0.000000 )     0.98497327
  WF centre and spread    8  (  1.904992,  1.904992, -0.000000 )     0.98497327
  WF centre and spread    9  ( -0.000000,  1.904992,  1.904992 )     0.98497334
  WF centre and spread   10  ( -0.000000,  1.904992,  1.904992 )     0.74949207
  WF centre and spread   11  (  0.000000,  1.904992,  1.904992 )     0.98497336
  WF centre and spread   12  (  1.904992, -0.000000,  1.904992 )     0.98497334
  WF centre and spread   13  (  1.904992, -0.000000,  1.904992 )     0.98497336
  WF centre and spread   14  (  1.904992,  0.000000,  1.904992 )     0.74949206
  Sum of centres and spreads ( 20.954915, 20.954915, 20.954915 )    11.14250395

      0     0.111E+02     0.0000000000       11.1425039467       0.79  <-- CONV
        O_D=      0.0000000 O_OD=      0.3759222 O_TOT=     11.1425039 <-- SPRD
 ------------------------------------------------------------------------------
 Cycle:      1
  WF centre and spread    1  (  1.904992,  1.904992,  1.904992 )     0.51526246
  WF centre and spread    2  (  1.904992,  1.904992,  1.904992 )     0.64802626
  WF centre and spread    3  (  1.904992,  1.904992,  1.904992 )     0.64802626
  WF centre and spread    4  (  1.904992,  1.904992,  1.904992 )     0.51526473
  WF centre and spread    5  (  1.904992,  1.904992,  1.904992 )     0.64802597
  WF centre and spread    6  (  1.904992,  1.904992, -0.000000 )     0.72783470
  WF centre and spread    7  (  1.904992,  1.904992,  0.000000 )     0.98059288
  WF centre and spread    8  (  1.904992,  1.904992, -0.000000 )     0.98059288
  WF centre and spread    9  ( -0.000000,  1.904992,  1.904992 )     0.98059337
  WF centre and spread   10  ( -0.000000,  1.904992,  1.904992 )     0.72775660
  WF centre and spread   11  (  0.000000,  1.904992,  1.904992 )     0.98059106
  WF centre and spread   12  (  1.904992, -0.000000,  1.904992 )     0.98059337
  WF centre and spread   13  (  1.904992, -0.000000,  1.904992 )     0.98059106
  WF centre and spread   14  (  1.904992,  0.000000,  1.904992 )     0.72775660
  Sum of centres and spreads ( 20.954915, 20.954915, 20.954915 )    11.04150819

      1    -0.101E+00     0.1955752773       11.0415081927       0.81  <-- CONV
        O_D=      0.0000000 O_OD=      0.2749264 O_TOT=     11.0415082 <-- SPRD
 Delta: O_D=  0.1027174E-11 O_OD= -0.1009958E+00 O_TOT= -0.1009958E+00 <-- DLTA
 ------------------------------------------------------------------------------
 Cycle:      2
  WF centre and spread    1  (  1.904992,  1.904992,  1.904992 )     0.51578844
  WF centre and spread    2  (  1.904992,  1.904992,  1.904992 )     0.64811782
  WF centre and spread    3  (  1.904992,  1.904992,  1.904992 )     0.64811782
  WF centre and spread    4  (  1.904992,  1.904992,  1.904992 )     0.51579085
  WF centre and spread    5  (  1.904992,  1.904992,  1.904992 )     0.64811807
  WF centre and spread    6  (  1.904992,  1.904992, -0.000000 )     0.71818223
  WF centre and spread    7  (  1.904992,  1.904992,  0.000000 )     0.97687706
  WF centre and spread    8  (  1.904992,  1.904992, -0.000000 )     0.97687706
  WF centre and spread    9  ( -0.000000,  1.904992,  1.904992 )     0.97687769
  WF centre and spread   10  ( -0.000000,  1.904992,  1.904992 )     0.71811983
  WF centre and spread   11  (  0.000000,  1.904992,  1.904992 )     0.97687684
  WF centre and spread   12  (  1.904992, -0.000000,  1.904992 )     0.97687769
  WF centre and spread   13  (  1.904992, -0.000000,  1.904992 )     0.97687684
  WF centre and spread   14  (  1.904992,  0.000000,  1.904992 )     0.71811983
  Sum of centres and spreads ( 20.954915, 20.954915, 20.954915 )    10.99161807

      2    -0.499E-01     0.2486857576       10.9916180660       0.84  <-- CONV
        O_D=      0.0000000 O_OD=      0.2250363 O_TOT=     10.9916181 <-- SPRD
 Delta: O_D=  0.3218933E-11 O_OD= -0.4989013E-01 O_TOT= -0.4989013E-01 <-- DLTA
 ------------------------------------------------------------------------------
 Cycle:      3
  WF centre and spread    1  (  1.904992,  1.904992,  1.904992 )     0.51626022
  WF centre and spread    2  (  1.904992,  1.904992,  1.904992 )     0.64797462
  WF centre and spread    3  (  1.904992,  1.904992,  1.904992 )     0.64797462
  WF centre and spread    4  (  1.904992,  1.904992,  1.904992 )     0.51626185
  WF centre and spread    5  (  1.904992,  1.904992,  1.904992 )     0.64797470
  WF centre and spread    6  (  1.904992,  1.904992, -0.000000 )     0.71629197
  WF centre and spread    7  (  1.904992,  1.904992,  0.000000 )     0.97595086
  WF centre and spread    8  (  1.904992,  1.904992, -0.000000 )     0.97595086
  WF centre and spread    9  ( -0.000000,  1.904992,  1.904992 )     0.97595217
  WF centre and spread   10  ( -0.000000,  1.904992,  1.904992 )     0.71623580
  WF centre and spread   11  (  0.000000,  1.904992,  1.904992 )     0.97595069
  WF centre and spread   12  (  1.904992, -0.000000,  1.904992 )     0.97595217
  WF centre and spread   13  (  1.904992, -0.000000,  1.904992 )     0.97595069
  WF centre and spread   14  (  1.904992,  0.000000,  1.904992 )     0.71623580
  Sum of centres and spreads ( 20.954915, 20.954915, 20.954915 )    10.98091702

      3    -0.107E-01     0.1437538857       10.9809170188       0.86  <-- CONV
        O_D=      0.0000000 O_OD=      0.2143352 O_TOT=     10.9809170 <-- SPRD
 Delta: O_D= -0.2753295E-12 O_OD= -0.1070105E-01 O_TOT= -0.1070105E-01 <-- DLTA
 ------------------------------------------------------------------------------
 Cycle:      4
  WF centre and spread    1  (  1.904992,  1.904992,  1.904992 )     0.51629775
  WF centre and spread    2  (  1.904992,  1.904992,  1.904992 )     0.64789954
  WF centre and spread    3  (  1.904992,  1.904992,  1.904992 )     0.64789954
  WF centre and spread    4  (  1.904992,  1.904992,  1.904992 )     0.51629877
  WF centre and spread    5  (  1.904992,  1.904992,  1.904992 )     0.64789949
  WF centre and spread    6  (  1.904992,  1.904992, -0.000000 )     0.71603649
  WF centre and spread    7  (  1.904992,  1.904992,  0.000000 )     0.97579754
  WF centre and spread    8  (  1.904992,  1.904992, -0.000000 )     0.97579754
  WF centre and spread    9  ( -0.000000,  1.904992,  1.904992 )     0.97579866
  WF centre and spread   10  ( -0.000000,  1.904992,  1.904992 )     0.71598543
  WF centre and spread   11  (  0.000000,  1.904992,  1.904992 )     0.97579748
  WF centre and spread   12  (  1.904992, -0.000000,  1.904992 )     0.97579866
  WF centre and spread   13  (  1.904992, -0.000000,  1.904992 )     0.97579748
  WF centre and spread   14  (  1.904992,  0.000000,  1.904992 )     0.71598542
  Sum of centres and spreads ( 20.954915, 20.954915, 20.954915 )    10.97908979

      4    -0.183E-02     0.0574437992       10.9790897870       0.88  <-- CONV
        O_D=      0.0000000 O_OD=      0.2125080 O_TOT=     10.9790898 <-- SPRD
 Delta: O_D=  0.8072810E-12 O_OD= -0.1827232E-02 O_TOT= -0.1827232E-02 <-- DLTA
 ------------------------------------------------------------------------------
 Cycle:      5
  WF centre and spread    1  (  1.904992,  1.904992,  1.904992 )     0.51630051
  WF centre and spread    2  (  1.904992,  1.904992,  1.904992 )     0.64785298
  WF centre and spread    3  (  1.904992,  1.904992,  1.904992 )     0.64785298
  WF centre and spread    4  (  1.904992,  1.904992,  1.904992 )     0.51630122
  WF centre and spread    5  (  1.904992,  1.904992,  1.904992 )     0.64785293
  WF centre and spread    6  (  1.904992,  1.904992, -0.000000 )     0.71601815
  WF centre and spread    7  (  1.904992,  1.904992,  0.000000 )     0.97576625
  WF centre and spread    8  (  1.904992,  1.904992, -0.000000 )     0.97576625
  WF centre and spread    9  ( -0.000000,  1.904992,  1.904992 )     0.97576710
  WF centre and spread   10  ( -0.000000,  1.904992,  1.904992 )     0.71597230
  WF centre and spread   11  (  0.000000,  1.904992,  1.904992 )     0.97576611
  WF centre and spread   12  (  1.904992, -0.000000,  1.904992 )     0.97576710
  WF centre and spread   13  (  1.904992, -0.000000,  1.904992 )     0.97576611
  WF centre and spread   14  (  1.904992,  0.000000,  1.904992 )     0.71597230
  Sum of centres and spreads ( 20.954915, 20.954915, 20.954915 )    10.97872229

      5    -0.367E-03     0.0270101958       10.9787222880       0.90  <-- CONV
        O_D=      0.0000000 O_OD=      0.2121405 O_TOT=     10.9787223 <-- SPRD
 Delta: O_D= -0.1421917E-11 O_OD= -0.3674990E-03 O_TOT= -0.3674990E-03 <-- DLTA
 ------------------------------------------------------------------------------
 Cycle:      6
  WF centre and spread    1  (  1.904992,  1.904992,  1.904992 )     0.51630829
  WF centre and spread    2  (  1.904992,  1.904992,  1.904992 )     0.64782780
  WF centre and spread    3  (  1.904992,  1.904992,  1.904992 )     0.64782780
  WF centre and spread    4  (  1.904992,  1.904992,  1.904992 )     0.51630891
  WF centre and spread    5  (  1.904992,  1.904992,  1.904992 )     0.64782775
  WF centre and spread    6  (  1.904992,  1.904992, -0.000000 )     0.71601652
  WF centre and spread    7  (  1.904992,  1.904992,  0.000000 )     0.97576745
  WF centre and spread    8  (  1.904992,  1.904992, -0.000000 )     0.97576745
  WF centre and spread    9  ( -0.000000,  1.904992,  1.904992 )     0.97576823
  WF centre and spread   10  ( -0.000000,  1.904992,  1.904992 )     0.71597430
  WF centre and spread   11  (  0.000000,  1.904992,  1.904992 )     0.97576727
  WF centre and spread   12  (  1.904992, -0.000000,  1.904992 )     0.97576823
  WF centre and spread   13  (  1.904992, -0.000000,  1.904992 )     0.97576727
  WF centre and spread   14  (  1.904992,  0.000000,  1.904992 )     0.71597430
  Sum of centres and spreads ( 20.954915, 20.954915, 20.954915 )    10.97867156

      6    -0.507E-04     0.0105944424       10.9786715648       0.92  <-- CONV
        O_D=      0.0000000 O_OD=      0.2120898 O_TOT=     10.9786716 <-- SPRD
 Delta: O_D= -0.1755884E-11 O_OD= -0.5072327E-04 O_TOT= -0.5072327E-04 <-- DLTA
 ------------------------------------------------------------------------------
 Cycle:      7
  WF centre and spread    1  (  1.904992,  1.904992,  1.904992 )     0.51632303
  WF centre and spread    2  (  1.904992,  1.904992,  1.904992 )     0.64780518
  WF centre and spread    3  (  1.904992,  1.904992,  1.904992 )     0.64780518
  WF centre and spread    4  (  1.904992,  1.904992,  1.904992 )     0.51632362
  WF centre and spread    5  (  1.904992,  1.904992,  1.904992 )     0.64780513
  WF centre and spread    6  (  1.904992,  1.904992, -0.000000 )     0.71600702
  WF centre and spread    7  (  1.904992,  1.904992,  0.000000 )     0.97577549
  WF centre and spread    8  (  1.904992,  1.904992, -0.000000 )     0.97577549
  WF centre and spread    9  ( -0.000000,  1.904992,  1.904992 )     0.97577624
  WF centre and spread   10  ( -0.000000,  1.904992,  1.904992 )     0.71596790
  WF centre and spread   11  (  0.000000,  1.904992,  1.904992 )     0.97577527
  WF centre and spread   12  (  1.904992, -0.000000,  1.904992 )     0.97577624
  WF centre and spread   13  (  1.904992, -0.000000,  1.904992 )     0.97577527
  WF centre and spread   14  (  1.904992,  0.000000,  1.904992 )     0.71596790
  Sum of centres and spreads ( 20.954915, 20.954915, 20.954915 )    10.97865895

      7    -0.126E-04     0.0046867837       10.9786589450       0.95  <-- CONV
        O_D=      0.0000000 O_OD=      0.2120772 O_TOT=     10.9786589 <-- SPRD
 Delta: O_D=  0.2183605E-11 O_OD= -0.1261975E-04 O_TOT= -0.1261975E-04 <-- DLTA
 ------------------------------------------------------------------------------
 Cycle:      8
  WF centre and spread    1  (  1.904992,  1.904992,  1.904992 )     0.51635996
  WF centre and spread    2  (  1.904992,  1.904992,  1.904992 )     0.64775363
  WF centre and spread    3  (  1.904992,  1.904992,  1.904992 )     0.64775363
  WF centre and spread    4  (  1.904992,  1.904992,  1.904992 )     0.51636051
  WF centre and spread    5  (  1.904992,  1.904992,  1.904992 )     0.64775358
  WF centre and spread    6  (  1.904992,  1.904992, -0.000000 )     0.71598470
  WF centre and spread    7  (  1.904992,  1.904992,  0.000000 )     0.97579561
  WF centre and spread    8  (  1.904992,  1.904992, -0.000000 )     0.97579561
  WF centre and spread    9  ( -0.000000,  1.904992,  1.904992 )     0.97579633
  WF centre and spread   10  ( -0.000000,  1.904992,  1.904992 )     0.71595292
  WF centre and spread   11  (  0.000000,  1.904992,  1.904992 )     0.97579533
  WF centre and spread   12  (  1.904992, -0.000000,  1.904992 )     0.97579633
  WF centre and spread   13  (  1.904992, -0.000000,  1.904992 )     0.97579533
  WF centre and spread   14  (  1.904992,  0.000000,  1.904992 )     0.71595292
  Sum of centres and spreads ( 20.954915, 20.954915, 20.954915 )    10.97864638

      8    -0.126E-04     0.0037130962       10.9786463845       0.97  <-- CONV
        O_D=      0.0000000 O_OD=      0.2120646 O_TOT=     10.9786464 <-- SPRD
 Delta: O_D=  0.3394082E-11 O_OD= -0.1256054E-04 O_TOT= -0.1256054E-04 <-- DLTA
 ------------------------------------------------------------------------------
 Cycle:      9
  WF centre and spread    1  (  1.904992,  1.904992,  1.904992 )     0.51638667
  WF centre and spread    2  (  1.904992,  1.904992,  1.904992 )     0.64771938
  WF centre and spread    3  (  1.904992,  1.904992,  1.904992 )     0.64771938
  WF centre and spread    4  (  1.904992,  1.904992,  1.904992 )     0.51638723
  WF centre and spread    5  (  1.904992,  1.904992,  1.904992 )     0.64771933
  WF centre and spread    6  (  1.904992,  1.904992, -0.000000 )     0.71596812
  WF centre and spread    7  (  1.904992,  1.904992,  0.000000 )     0.97580944
  WF centre and spread    8  (  1.904992,  1.904992, -0.000000 )     0.97580944
  WF centre and spread    9  ( -0.000000,  1.904992,  1.904992 )     0.97581015
  WF centre and spread   10  ( -0.000000,  1.904992,  1.904992 )     0.71594158
  WF centre and spread   11  (  0.000000,  1.904992,  1.904992 )     0.97580915
  WF centre and spread   12  (  1.904992, -0.000000,  1.904992 )     0.97581015
  WF centre and spread   13  (  1.904992, -0.000000,  1.904992 )     0.97580915
  WF centre and spread   14  (  1.904992,  0.000000,  1.904992 )     0.71594158
  Sum of centres and spreads ( 20.954915, 20.954915, 20.954915 )    10.97864075

      9    -0.564E-05     0.0030171016       10.9786407494       0.99  <-- CONV
        O_D=      0.0000000 O_OD=      0.2120590 O_TOT=     10.9786407 <-- SPRD
 Delta: O_D= -0.6031420E-12 O_OD= -0.5635108E-05 O_TOT= -0.5635108E-05 <-- DLTA
 ------------------------------------------------------------------------------
 Cycle:     10
  WF centre and spread    1  (  1.904992,  1.904992,  1.904992 )     0.51640236
  WF centre and spread    2  (  1.904992,  1.904992,  1.904992 )     0.64770126
  WF centre and spread    3  (  1.904992,  1.904992,  1.904992 )     0.64770126
  WF centre and spread    4  (  1.904992,  1.904992,  1.904992 )     0.51640294
  WF centre and spread    5  (  1.904992,  1.904992,  1.904992 )     0.64770122
  WF centre and spread    6  (  1.904992,  1.904992, -0.000000 )     0.71595759
  WF centre and spread    7  (  1.904992,  1.904992,  0.000000 )     0.97581713
  WF centre and spread    8  (  1.904992,  1.904992, -0.000000 )     0.97581713
  WF centre and spread    9  ( -0.000000,  1.904992,  1.904992 )     0.97581786
  WF centre and spread   10  ( -0.000000,  1.904992,  1.904992 )     0.71593421
  WF centre and spread   11  (  0.000000,  1.904992,  1.904992 )     0.97581687
  WF centre and spread   12  (  1.904992, -0.000000,  1.904992 )     0.97581786
  WF centre and spread   13  (  1.904992, -0.000000,  1.904992 )     0.97581687
  WF centre and spread   14  (  1.904992,  0.000000,  1.904992 )     0.71593421
  Sum of centres and spreads ( 20.954915, 20.954915, 20.954915 )    10.97863878

     10    -0.197E-05     0.0017886934       10.9786387761       1.01  <-- CONV
        O_D=      0.0000000 O_OD=      0.2120570 O_TOT=     10.9786388 <-- SPRD
 Delta: O_D=  0.7347333E-13 O_OD= -0.1973298E-05 O_TOT= -0.1973297E-05 <-- DLTA
 ------------------------------------------------------------------------------
 Cycle:     11
  WF centre and spread    1  (  1.904992,  1.904992,  1.904992 )     0.51641125
  WF centre and spread    2  (  1.904992,  1.904992,  1.904992 )     0.64769052
  WF centre and spread    3  (  1.904992,  1.904992,  1.904992 )     0.64769052
  WF centre and spread    4  (  1.904992,  1.904992,  1.904992 )     0.51641186
  WF centre and spread    5  (  1.904992,  1.904992,  1.904992 )     0.64769048
  WF centre and spread    6  (  1.904992,  1.904992, -0.000000 )     0.71595040
  WF centre and spread    7  (  1.904992,  1.904992,  0.000000 )     0.97582234
  WF centre and spread    8  (  1.904992,  1.904992, -0.000000 )     0.97582234
  WF centre and spread    9  ( -0.000000,  1.904992,  1.904992 )     0.97582308
  WF centre and spread   10  ( -0.000000,  1.904992,  1.904992 )     0.71592904
  WF centre and spread   11  (  0.000000,  1.904992,  1.904992 )     0.97582209
  WF centre and spread   12  (  1.904992, -0.000000,  1.904992 )     0.97582308
  WF centre and spread   13  (  1.904992, -0.000000,  1.904992 )     0.97582209
  WF centre and spread   14  (  1.904992,  0.000000,  1.904992 )     0.71592904
  Sum of centres and spreads ( 20.954915, 20.954915, 20.954915 )    10.97863815

     11    -0.625E-06     0.0009882405       10.9786381514       1.03  <-- CONV
        O_D=      0.0000000 O_OD=      0.2120564 O_TOT=     10.9786382 <-- SPRD
 Delta: O_D=  0.2788715E-11 O_OD= -0.6246798E-06 O_TOT= -0.6246770E-06 <-- DLTA
 ------------------------------------------------------------------------------
 Cycle:     12
  WF centre and spread    1  (  1.904992,  1.904992,  1.904992 )     0.51642262
  WF centre and spread    2  (  1.904992,  1.904992,  1.904992 )     0.64767553
  WF centre and spread    3  (  1.904992,  1.904992,  1.904992 )     0.64767553
  WF centre and spread    4  (  1.904992,  1.904992,  1.904992 )     0.51642324
  WF centre and spread    5  (  1.904992,  1.904992,  1.904992 )     0.64767549
  WF centre and spread    6  (  1.904992,  1.904992, -0.000000 )     0.71593955
  WF centre and spread    7  (  1.904992,  1.904992,  0.000000 )     0.97583042
  WF centre and spread    8  (  1.904992,  1.904992, -0.000000 )     0.97583042
  WF centre and spread    9  ( -0.000000,  1.904992,  1.904992 )     0.97583119
  WF centre and spread   10  ( -0.000000,  1.904992,  1.904992 )     0.71592102
  WF centre and spread   11  (  0.000000,  1.904992,  1.904992 )     0.97583020
  WF centre and spread   12  (  1.904992, -0.000000,  1.904992 )     0.97583119
  WF centre and spread   13  (  1.904992, -0.000000,  1.904992 )     0.97583020
  WF centre and spread   14  (  1.904992,  0.000000,  1.904992 )     0.71592102
  Sum of centres and spreads ( 20.954915, 20.954915, 20.954915 )    10.97863766

     12    -0.491E-06     0.0006963194       10.9786376600       1.06  <-- CONV
        O_D=      0.0000000 O_OD=      0.2120559 O_TOT=     10.9786377 <-- SPRD
 Delta: O_D=  0.2930700E-10 O_OD= -0.4914532E-06 O_TOT= -0.4914239E-06 <-- DLTA
 ------------------------------------------------------------------------------
 Cycle:     13
  WF centre and spread    1  (  1.904992,  1.904992,  1.904992 )     0.51642390
  WF centre and spread    2  (  1.904992,  1.904992,  1.904992 )     0.64767439
  WF centre and spread    3  (  1.904992,  1.904992,  1.904992 )     0.64767439
  WF centre and spread    4  (  1.904992,  1.904992,  1.904992 )     0.51642450
  WF centre and spread    5  (  1.904992,  1.904992,  1.904992 )     0.64767435
  WF centre and spread    6  (  1.904992,  1.904992, -0.000000 )     0.71593816
  WF centre and spread    7  (  1.904992,  1.904992,  0.000000 )     0.97583114
  WF centre and spread    8  (  1.904992,  1.904992, -0.000000 )     0.97583114
  WF centre and spread    9  ( -0.000000,  1.904992,  1.904992 )     0.97583191
  WF centre and spread   10  ( -0.000000,  1.904992,  1.904992 )     0.71591992
  WF centre and spread   11  (  0.000000,  1.904992,  1.904992 )     0.97583092
  WF centre and spread   12  (  1.904992, -0.000000,  1.904992 )     0.97583191
  WF centre and spread   13  (  1.904992, -0.000000,  1.904992 )     0.97583092
  WF centre and spread   14  (  1.904992,  0.000000,  1.904992 )     0.71591992
  Sum of centres and spreads ( 20.954915, 20.954915, 20.954915 )    10.97863748

     13    -0.180E-06     0.0006565466       10.9786374800       1.08  <-- CONV
        O_D=      0.0000000 O_OD=      0.2120557 O_TOT=     10.9786375 <-- SPRD
 Delta: O_D= -0.1128806E-10 O_OD= -0.1799119E-06 O_TOT= -0.1799232E-06 <-- DLTA
 ------------------------------------------------------------------------------
 Cycle:     14
  WF centre and spread    1  (  1.904992,  1.904992,  1.904992 )     0.51642621
  WF centre and spread    2  (  1.904992,  1.904992,  1.904992 )     0.64767215
  WF centre and spread    3  (  1.904992,  1.904992,  1.904992 )     0.64767215
  WF centre and spread    4  (  1.904992,  1.904992,  1.904992 )     0.51642678
  WF centre and spread    5  (  1.904992,  1.904992,  1.904992 )     0.64767211
  WF centre and spread    6  (  1.904992,  1.904992, -0.000000 )     0.71593575
  WF centre and spread    7  (  1.904992,  1.904992,  0.000000 )     0.97583252
  WF centre and spread    8  (  1.904992,  1.904992, -0.000000 )     0.97583252
  WF centre and spread    9  ( -0.000000,  1.904992,  1.904992 )     0.97583328
  WF centre and spread   10  ( -0.000000,  1.904992,  1.904992 )     0.71591805
  WF centre and spread   11  (  0.000000,  1.904992,  1.904992 )     0.97583229
  WF centre and spread   12  (  1.904992, -0.000000,  1.904992 )     0.97583328
  WF centre and spread   13  (  1.904992, -0.000000,  1.904992 )     0.97583229
  WF centre and spread   14  (  1.904992,  0.000000,  1.904992 )     0.71591805
  Sum of centres and spreads ( 20.954915, 20.954915, 20.954915 )    10.97863740

     14    -0.835E-07     0.0003544589       10.9786373965       1.10  <-- CONV
        O_D=      0.0000000 O_OD=      0.2120556 O_TOT=     10.9786374 <-- SPRD
 Delta: O_D= -0.4305632E-11 O_OD= -0.8354323E-07 O_TOT= -0.8354753E-07 <-- DLTA
 ------------------------------------------------------------------------------
 Cycle:     15
  WF centre and spread    1  (  1.904992,  1.904992,  1.904992 )     0.51642947
  WF centre and spread    2  (  1.904992,  1.904992,  1.904992 )     0.64766854
  WF centre and spread    3  (  1.904992,  1.904992,  1.904992 )     0.64766854
  WF centre and spread    4  (  1.904992,  1.904992,  1.904992 )     0.51643000
  WF centre and spread    5  (  1.904992,  1.904992,  1.904992 )     0.64766850
  WF centre and spread    6  (  1.904992,  1.904992, -0.000000 )     0.71593236
  WF centre and spread    7  (  1.904992,  1.904992,  0.000000 )     0.97583465
  WF centre and spread    8  (  1.904992,  1.904992, -0.000000 )     0.97583465
  WF centre and spread    9  ( -0.000000,  1.904992,  1.904992 )     0.97583541
  WF centre and spread   10  ( -0.000000,  1.904992,  1.904992 )     0.71591550
  WF centre and spread   11  (  0.000000,  1.904992,  1.904992 )     0.97583442
  WF centre and spread   12  (  1.904992, -0.000000,  1.904992 )     0.97583541
  WF centre and spread   13  (  1.904992, -0.000000,  1.904992 )     0.97583441
  WF centre and spread   14  (  1.904992,  0.000000,  1.904992 )     0.71591550
  Sum of centres and spreads ( 20.954915, 20.954915, 20.954915 )    10.97863734

     15    -0.534E-07     0.0002270030       10.9786373431       1.12  <-- CONV
        O_D=      0.0000000 O_OD=      0.2120556 O_TOT=     10.9786373 <-- SPRD
 Delta: O_D=  0.9287198E-10 O_OD= -0.5348450E-07 O_TOT= -0.5339163E-07 <-- DLTA
 ------------------------------------------------------------------------------
 Cycle:     16
  WF centre and spread    1  (  1.904992,  1.904992,  1.904992 )     0.51643167
  WF centre and spread    2  (  1.904992,  1.904992,  1.904992 )     0.64766612
  WF centre and spread    3  (  1.904992,  1.904992,  1.904992 )     0.64766612
  WF centre and spread    4  (  1.904992,  1.904992,  1.904992 )     0.51643217
  WF centre and spread    5  (  1.904992,  1.904992,  1.904992 )     0.64766608
  WF centre and spread    6  (  1.904992,  1.904992, -0.000000 )     0.71593018
  WF centre and spread    7  (  1.904992,  1.904992,  0.000000 )     0.97583603
  WF centre and spread    8  (  1.904992,  1.904992, -0.000000 )     0.97583603
  WF centre and spread    9  ( -0.000000,  1.904992,  1.904992 )     0.97583679
  WF centre and spread   10  ( -0.000000,  1.904992,  1.904992 )     0.71591388
  WF centre and spread   11  (  0.000000,  1.904992,  1.904992 )     0.97583579
  WF centre and spread   12  (  1.904992, -0.000000,  1.904992 )     0.97583679
  WF centre and spread   13  (  1.904992, -0.000000,  1.904992 )     0.97583579
  WF centre and spread   14  (  1.904992,  0.000000,  1.904992 )     0.71591388
  Sum of centres and spreads ( 20.954915, 20.954915, 20.954915 )    10.97863732

     16    -0.247E-07     0.0001980086       10.9786373184       1.14  <-- CONV
        O_D=      0.0000000 O_OD=      0.2120555 O_TOT=     10.9786373 <-- SPRD
 Delta: O_D=  0.2687568E-10 O_OD= -0.2471408E-07 O_TOT= -0.2468720E-07 <-- DLTA
 ------------------------------------------------------------------------------
 Cycle:     17
  WF centre and spread    1  (  1.904992,  1.904992,  1.904992 )     0.51643309
  WF centre and spread    2  (  1.904992,  1.904992,  1.904992 )     0.64766470
  WF centre and spread    3  (  1.904992,  1.904992,  1.904992 )     0.64766470
  WF centre and spread    4  (  1.904992,  1.904992,  1.904992 )     0.51643357
  WF centre and spread    5  (  1.904992,  1.904992,  1.904992 )     0.64766466
  WF centre and spread    6  (  1.904992,  1.904992, -0.000000 )     0.71592894
  WF centre and spread    7  (  1.904992,  1.904992,  0.000000 )     0.97583677
  WF centre and spread    8  (  1.904992,  1.904992, -0.000000 )     0.97583677
  WF centre and spread    9  ( -0.000000,  1.904992,  1.904992 )     0.97583754
  WF centre and spread   10  ( -0.000000,  1.904992,  1.904992 )     0.71591298
  WF centre and spread   11  (  0.000000,  1.904992,  1.904992 )     0.97583654
  WF centre and spread   12  (  1.904992, -0.000000,  1.904992 )     0.97583754
  WF centre and spread   13  (  1.904992, -0.000000,  1.904992 )     0.97583654
  WF centre and spread   14  (  1.904992,  0.000000,  1.904992 )     0.71591298
  Sum of centres and spreads ( 20.954915, 20.954915, 20.954915 )    10.97863731

     17    -0.103E-07     0.0001302614       10.9786373081       1.16  <-- CONV
        O_D=      0.0000000 O_OD=      0.2120555 O_TOT=     10.9786373 <-- SPRD
 Delta: O_D= -0.3117122E-10 O_OD= -0.1026377E-07 O_TOT= -0.1029494E-07 <-- DLTA
 ------------------------------------------------------------------------------
 Cycle:     18
  WF centre and spread    1  (  1.904992,  1.904992,  1.904992 )     0.51643372
  WF centre and spread    2  (  1.904992,  1.904992,  1.904992 )     0.64766409
  WF centre and spread    3  (  1.904992,  1.904992,  1.904992 )     0.64766409
  WF centre and spread    4  (  1.904992,  1.904992,  1.904992 )     0.51643420
  WF centre and spread    5  (  1.904992,  1.904992,  1.904992 )     0.64766405
  WF centre and spread    6  (  1.904992,  1.904992, -0.000000 )     0.71592847
  WF centre and spread    7  (  1.904992,  1.904992,  0.000000 )     0.97583705
  WF centre and spread    8  (  1.904992,  1.904992, -0.000000 )     0.97583705
  WF centre and spread    9  ( -0.000000,  1.904992,  1.904992 )     0.97583782
  WF centre and spread   10  ( -0.000000,  1.904992,  1.904992 )     0.71591265
  WF centre and spread   11  (  0.000000,  1.904992,  1.904992 )     0.97583682
  WF centre and spread   12  (  1.904992, -0.000000,  1.904992 )     0.97583782
  WF centre and spread   13  (  1.904992, -0.000000,  1.904992 )     0.97583682
  WF centre and spread   14  (  1.904992,  0.000000,  1.904992 )     0.71591265
  Sum of centres and spreads ( 20.954915, 20.954915, 20.954915 )    10.97863731

     18    -0.265E-08     0.0000704604       10.9786373055       1.19  <-- CONV
        O_D=      0.0000000 O_OD=      0.2120555 O_TOT=     10.9786373 <-- SPRD
 Delta: O_D= -0.3934179E-10 O_OD= -0.2608012E-08 O_TOT= -0.2647354E-08 <-- DLTA
 ------------------------------------------------------------------------------
 Cycle:     19
  WF centre and spread    1  (  1.904992,  1.904992,  1.904992 )     0.51643391
  WF centre and spread    2  (  1.904992,  1.904992,  1.904992 )     0.64766389
  WF centre and spread    3  (  1.904992,  1.904992,  1.904992 )     0.64766389
  WF centre and spread    4  (  1.904992,  1.904992,  1.904992 )     0.51643439
  WF centre and spread    5  (  1.904992,  1.904992,  1.904992 )     0.64766385
  WF centre and spread    6  (  1.904992,  1.904992, -0.000000 )     0.71592836
  WF centre and spread    7  (  1.904992,  1.904992,  0.000000 )     0.97583713
  WF centre and spread    8  (  1.904992,  1.904992, -0.000000 )     0.97583713
  WF centre and spread    9  ( -0.000000,  1.904992,  1.904992 )     0.97583789
  WF centre and spread   10  ( -0.000000,  1.904992,  1.904992 )     0.71591259
  WF centre and spread   11  (  0.000000,  1.904992,  1.904992 )     0.97583690
  WF centre and spread   12  (  1.904992, -0.000000,  1.904992 )     0.97583789
  WF centre and spread   13  (  1.904992, -0.000000,  1.904992 )     0.97583690
  WF centre and spread   14  (  1.904992,  0.000000,  1.904992 )     0.71591259
  Sum of centres and spreads ( 20.954915, 20.954915, 20.954915 )    10.97863730

     19    -0.135E-08     0.0000491219       10.9786373041       1.21  <-- CONV
        O_D=      0.0000000 O_OD=      0.2120555 O_TOT=     10.9786373 <-- SPRD
 Delta: O_D=  0.8238135E-10 O_OD= -0.1428628E-08 O_TOT= -0.1346246E-08 <-- DLTA
 ------------------------------------------------------------------------------
 Cycle:     20
  WF centre and spread    1  (  1.904992,  1.904992,  1.904992 )     0.51643441
  WF centre and spread    2  (  1.904992,  1.904992,  1.904992 )     0.64766340
  WF centre and spread    3  (  1.904992,  1.904992,  1.904992 )     0.64766340
  WF centre and spread    4  (  1.904992,  1.904992,  1.904992 )     0.51643487
  WF centre and spread    5  (  1.904992,  1.904992,  1.904992 )     0.64766336
  WF centre and spread    6  (  1.904992,  1.904992, -0.000000 )     0.71592806
  WF centre and spread    7  (  1.904992,  1.904992,  0.000000 )     0.97583732
  WF centre and spread    8  (  1.904992,  1.904992, -0.000000 )     0.97583732
  WF centre and spread    9  ( -0.000000,  1.904992,  1.904992 )     0.97583808
  WF centre and spread   10  ( -0.000000,  1.904992,  1.904992 )     0.71591240
  WF centre and spread   11  (  0.000000,  1.904992,  1.904992 )     0.97583709
  WF centre and spread   12  (  1.904992, -0.000000,  1.904992 )     0.97583808
  WF centre and spread   13  (  1.904992, -0.000000,  1.904992 )     0.97583709
  WF centre and spread   14  (  1.904992,  0.000000,  1.904992 )     0.71591240
  Sum of centres and spreads ( 20.954915, 20.954915, 20.954915 )    10.97863730

     20    -0.156E-08     0.0000434116       10.9786373026       1.23  <-- CONV
        O_D=      0.0000000 O_OD=      0.2120555 O_TOT=     10.9786373 <-- SPRD
 Delta: O_D= -0.7946211E-10 O_OD= -0.1481632E-08 O_TOT= -0.1561094E-08 <-- DLTA
 ------------------------------------------------------------------------------
 Cycle:     21
  WF centre and spread    1  (  1.904992,  1.904992,  1.904992 )     0.51643476
  WF centre and spread    2  (  1.904992,  1.904992,  1.904992 )     0.64766308
  WF centre and spread    3  (  1.904992,  1.904992,  1.904992 )     0.64766308
  WF centre and spread    4  (  1.904992,  1.904992,  1.904992 )     0.51643522
  WF centre and spread    5  (  1.904992,  1.904992,  1.904992 )     0.64766304
  WF centre and spread    6  (  1.904992,  1.904992, -0.000000 )     0.71592783
  WF centre and spread    7  (  1.904992,  1.904992,  0.000000 )     0.97583745
  WF centre and spread    8  (  1.904992,  1.904992, -0.000000 )     0.97583745
  WF centre and spread    9  ( -0.000000,  1.904992,  1.904992 )     0.97583822
  WF centre and spread   10  ( -0.000000,  1.904992,  1.904992 )     0.71591225
  WF centre and spread   11  (  0.000000,  1.904992,  1.904992 )     0.97583722
  WF centre and spread   12  (  1.904992, -0.000000,  1.904992 )     0.97583822
  WF centre and spread   13  (  1.904992, -0.000000,  1.904992 )     0.97583722
  WF centre and spread   14  (  1.904992,  0.000000,  1.904992 )     0.71591225
  Sum of centres and spreads ( 20.954915, 20.954915, 20.954915 )    10.97863730

     21    -0.665E-09     0.0000342510       10.9786373019       1.25  <-- CONV
        O_D=      0.0000000 O_OD=      0.2120555 O_TOT=     10.9786373 <-- SPRD
 Delta: O_D= -0.5908676E-10 O_OD= -0.6055910E-09 O_TOT= -0.6646790E-09 <-- DLTA
 ------------------------------------------------------------------------------
 Cycle:     22
  WF centre and spread    1  (  1.904992,  1.904992,  1.904992 )     0.51643500
  WF centre and spread    2  (  1.904992,  1.904992,  1.904992 )     0.64766287
  WF centre and spread    3  (  1.904992,  1.904992,  1.904992 )     0.64766287
  WF centre and spread    4  (  1.904992,  1.904992,  1.904992 )     0.51643546
  WF centre and spread    5  (  1.904992,  1.904992,  1.904992 )     0.64766283
  WF centre and spread    6  (  1.904992,  1.904992, -0.000000 )     0.71592766
  WF centre and spread    7  (  1.904992,  1.904992,  0.000000 )     0.97583754
  WF centre and spread    8  (  1.904992,  1.904992, -0.000000 )     0.97583754
  WF centre and spread    9  ( -0.000000,  1.904992,  1.904992 )     0.97583831
  WF centre and spread   10  ( -0.000000,  1.904992,  1.904992 )     0.71591214
  WF centre and spread   11  (  0.000000,  1.904992,  1.904992 )     0.97583732
  WF centre and spread   12  (  1.904992, -0.000000,  1.904992 )     0.97583831
  WF centre and spread   13  (  1.904992, -0.000000,  1.904992 )     0.97583732
  WF centre and spread   14  (  1.904992,  0.000000,  1.904992 )     0.71591214
  Sum of centres and spreads ( 20.954915, 20.954915, 20.954915 )    10.97863730

     22    -0.275E-09     0.0000217421       10.9786373016       1.27  <-- CONV
        O_D=      0.0000000 O_OD=      0.2120555 O_TOT=     10.9786373 <-- SPRD
 Delta: O_D= -0.1499713E-10 O_OD= -0.2604021E-09 O_TOT= -0.2753993E-09 <-- DLTA
 ------------------------------------------------------------------------------
 Cycle:     23
  WF centre and spread    1  (  1.904992,  1.904992,  1.904992 )     0.51643515
  WF centre and spread    2  (  1.904992,  1.904992,  1.904992 )     0.64766274
  WF centre and spread    3  (  1.904992,  1.904992,  1.904992 )     0.64766274
  WF centre and spread    4  (  1.904992,  1.904992,  1.904992 )     0.51643560
  WF centre and spread    5  (  1.904992,  1.904992,  1.904992 )     0.64766270
  WF centre and spread    6  (  1.904992,  1.904992, -0.000000 )     0.71592754
  WF centre and spread    7  (  1.904992,  1.904992,  0.000000 )     0.97583761
  WF centre and spread    8  (  1.904992,  1.904992, -0.000000 )     0.97583761
  WF centre and spread    9  ( -0.000000,  1.904992,  1.904992 )     0.97583838
  WF centre and spread   10  ( -0.000000,  1.904992,  1.904992 )     0.71591205
  WF centre and spread   11  (  0.000000,  1.904992,  1.904992 )     0.97583738
  WF centre and spread   12  (  1.904992, -0.000000,  1.904992 )     0.97583838
  WF centre and spread   13  (  1.904992, -0.000000,  1.904992 )     0.97583738
  WF centre and spread   14  (  1.904992,  0.000000,  1.904992 )     0.71591205
  Sum of centres and spreads ( 20.954915, 20.954915, 20.954915 )    10.97863730

     23    -0.836E-10     0.0000111801       10.9786373015       1.29  <-- CONV
        O_D=      0.0000000 O_OD=      0.2120555 O_TOT=     10.9786373 <-- SPRD
 Delta: O_D= -0.6223122E-12 O_OD= -0.8302303E-10 O_TOT= -0.8364509E-10 <-- DLTA
 ------------------------------------------------------------------------------
 Cycle:     24
  WF centre and spread    1  (  1.904992,  1.904992,  1.904992 )     0.51643535
  WF centre and spread    2  (  1.904992,  1.904992,  1.904992 )     0.64766257
  WF centre and spread    3  (  1.904992,  1.904992,  1.904992 )     0.64766257
  WF centre and spread    4  (  1.904992,  1.904992,  1.904992 )     0.51643579
  WF centre and spread    5  (  1.904992,  1.904992,  1.904992 )     0.64766253
  WF centre and spread    6  (  1.904992,  1.904992, -0.000000 )     0.71592736
  WF centre and spread    7  (  1.904992,  1.904992,  0.000000 )     0.97583770
  WF centre and spread    8  (  1.904992,  1.904992, -0.000000 )     0.97583770
  WF centre and spread    9  ( -0.000000,  1.904992,  1.904992 )     0.97583847
  WF centre and spread   10  ( -0.000000,  1.904992,  1.904992 )     0.71591192
  WF centre and spread   11  (  0.000000,  1.904992,  1.904992 )     0.97583747
  WF centre and spread   12  (  1.904992, -0.000000,  1.904992 )     0.97583847
  WF centre and spread   13  (  1.904992, -0.000000,  1.904992 )     0.97583747
  WF centre and spread   14  (  1.904992,  0.000000,  1.904992 )     0.71591192
  Sum of centres and spreads ( 20.954915, 20.954915, 20.954915 )    10.97863730

     24    -0.472E-10     0.0000092861       10.9786373015       1.32  <-- CONV
        O_D=      0.0000000 O_OD=      0.2120555 O_TOT=     10.9786373 <-- SPRD
 Delta: O_D= -0.6966467E-14 O_OD= -0.4718193E-10 O_TOT= -0.4718892E-10 <-- DLTA
 ------------------------------------------------------------------------------
 Cycle:     25
  WF centre and spread    1  (  1.904992,  1.904992,  1.904992 )     0.51643536
  WF centre and spread    2  (  1.904992,  1.904992,  1.904992 )     0.64766256
  WF centre and spread    3  (  1.904992,  1.904992,  1.904992 )     0.64766256
  WF centre and spread    4  (  1.904992,  1.904992,  1.904992 )     0.51643581
  WF centre and spread    5  (  1.904992,  1.904992,  1.904992 )     0.64766252
  WF centre and spread    6  (  1.904992,  1.904992, -0.000000 )     0.71592735
  WF centre and spread    7  (  1.904992,  1.904992,  0.000000 )     0.97583770
  WF centre and spread    8  (  1.904992,  1.904992, -0.000000 )     0.97583770
  WF centre and spread    9  ( -0.000000,  1.904992,  1.904992 )     0.97583847
  WF centre and spread   10  ( -0.000000,  1.904992,  1.904992 )     0.71591191
  WF centre and spread   11  (  0.000000,  1.904992,  1.904992 )     0.97583748
  WF centre and spread   12  (  1.904992, -0.000000,  1.904992 )     0.97583847
  WF centre and spread   13  (  1.904992, -0.000000,  1.904992 )     0.97583748
  WF centre and spread   14  (  1.904992,  0.000000,  1.904992 )     0.71591191
  Sum of centres and spreads ( 20.954915, 20.954915, 20.954915 )    10.97863730

     25    -0.402E-10     0.0000102754       10.9786373015       1.34  <-- CONV
        O_D=      0.0000000 O_OD=      0.2120555 O_TOT=     10.9786373 <-- SPRD
 Delta: O_D= -0.1932367E-12 O_OD= -0.3999781E-10 O_TOT= -0.4019007E-10 <-- DLTA
 ------------------------------------------------------------------------------
 Cycle:     26
  WF centre and spread    1  (  1.904992,  1.904992,  1.904992 )     0.51643540
  WF centre and spread    2  (  1.904992,  1.904992,  1.904992 )     0.64766254
  WF centre and spread    3  (  1.904992,  1.904992,  1.904992 )     0.64766254
  WF centre and spread    4  (  1.904992,  1.904992,  1.904992 )     0.51643584
  WF centre and spread    5  (  1.904992,  1.904992,  1.904992 )     0.64766250
  WF centre and spread    6  (  1.904992,  1.904992, -0.000000 )     0.71592731
  WF centre and spread    7  (  1.904992,  1.904992,  0.000000 )     0.97583772
  WF centre and spread    8  (  1.904992,  1.904992, -0.000000 )     0.97583772
  WF centre and spread    9  ( -0.000000,  1.904992,  1.904992 )     0.97583849
  WF centre and spread   10  ( -0.000000,  1.904992,  1.904992 )     0.71591189
  WF centre and spread   11  (  0.000000,  1.904992,  1.904992 )     0.97583750
  WF centre and spread   12  (  1.904992, -0.000000,  1.904992 )     0.97583849
  WF centre and spread   13  (  1.904992, -0.000000,  1.904992 )     0.97583750
  WF centre and spread   14  (  1.904992,  0.000000,  1.904992 )     0.71591189
  Sum of centres and spreads ( 20.954915, 20.954915, 20.954915 )    10.97863730

     26    -0.425E-11     0.0000053088       10.9786373015       1.36  <-- CONV
        O_D=      0.0000000 O_OD=      0.2120555 O_TOT=     10.9786373 <-- SPRD
 Delta: O_D=  0.1032659E-11 O_OD= -0.5284717E-11 O_TOT= -0.4252598E-11 <-- DLTA
 ------------------------------------------------------------------------------
 Cycle:     27
  WF centre and spread    1  (  1.904992,  1.904992,  1.904992 )     0.51643541
  WF centre and spread    2  (  1.904992,  1.904992,  1.904992 )     0.64766253
  WF centre and spread    3  (  1.904992,  1.904992,  1.904992 )     0.64766253
  WF centre and spread    4  (  1.904992,  1.904992,  1.904992 )     0.51643585
  WF centre and spread    5  (  1.904992,  1.904992,  1.904992 )     0.64766249
  WF centre and spread    6  (  1.904992,  1.904992, -0.000000 )     0.71592729
  WF centre and spread    7  (  1.904992,  1.904992,  0.000000 )     0.97583773
  WF centre and spread    8  (  1.904992,  1.904992, -0.000000 )     0.97583773
  WF centre and spread    9  ( -0.000000,  1.904992,  1.904992 )     0.97583850
  WF centre and spread   10  ( -0.000000,  1.904992,  1.904992 )     0.71591188
  WF centre and spread   11  (  0.000000,  1.904992,  1.904992 )     0.97583750
  WF centre and spread   12  (  1.904992, -0.000000,  1.904992 )     0.97583850
  WF centre and spread   13  (  1.904992, -0.000000,  1.904992 )     0.97583750
  WF centre and spread   14  (  1.904992,  0.000000,  1.904992 )     0.71591187
  Sum of centres and spreads ( 20.954915, 20.954915, 20.954915 )    10.97863730

     27    -0.234E-11     0.0000064814       10.9786373014       1.38  <-- CONV
        O_D=      0.0000000 O_OD=      0.2120555 O_TOT=     10.9786373 <-- SPRD
 Delta: O_D= -0.9560945E-12 O_OD= -0.1380229E-11 O_TOT= -0.2337686E-11 <-- DLTA
 ------------------------------------------------------------------------------
 Cycle:     28
  WF centre and spread    1  (  1.904992,  1.904992,  1.904992 )     0.51643543
  WF centre and spread    2  (  1.904992,  1.904992,  1.904992 )     0.64766251
  WF centre and spread    3  (  1.904992,  1.904992,  1.904992 )     0.64766251
  WF centre and spread    4  (  1.904992,  1.904992,  1.904992 )     0.51643587
  WF centre and spread    5  (  1.904992,  1.904992,  1.904992 )     0.64766247
  WF centre and spread    6  (  1.904992,  1.904992, -0.000000 )     0.71592727
  WF centre and spread    7  (  1.904992,  1.904992,  0.000000 )     0.97583774
  WF centre and spread    8  (  1.904992,  1.904992, -0.000000 )     0.97583774
  WF centre and spread    9  ( -0.000000,  1.904992,  1.904992 )     0.97583851
  WF centre and spread   10  ( -0.000000,  1.904992,  1.904992 )     0.71591186
  WF centre and spread   11  (  0.000000,  1.904992,  1.904992 )     0.97583751
  WF centre and spread   12  (  1.904992, -0.000000,  1.904992 )     0.97583851
  WF centre and spread   13  (  1.904992, -0.000000,  1.904992 )     0.97583751
  WF centre and spread   14  (  1.904992,  0.000000,  1.904992 )     0.71591186
  Sum of centres and spreads ( 20.954915, 20.954915, 20.954915 )    10.97863730

     28    -0.844E-11     0.0000056995       10.9786373014       1.40  <-- CONV
        O_D=      0.0000000 O_OD=      0.2120555 O_TOT=     10.9786373 <-- SPRD
 Delta: O_D=  0.7881168E-13 O_OD= -0.8522932E-11 O_TOT= -0.8441248E-11 <-- DLTA
 ------------------------------------------------------------------------------
 Cycle:     29
  WF centre and spread    1  (  1.904992,  1.904992,  1.904992 )     0.51643543
  WF centre and spread    2  (  1.904992,  1.904992,  1.904992 )     0.64766251
  WF centre and spread    3  (  1.904992,  1.904992,  1.904992 )     0.64766251
  WF centre and spread    4  (  1.904992,  1.904992,  1.904992 )     0.51643587
  WF centre and spread    5  (  1.904992,  1.904992,  1.904992 )     0.64766247
  WF centre and spread    6  (  1.904992,  1.904992, -0.000000 )     0.71592727
  WF centre and spread    7  (  1.904992,  1.904992,  0.000000 )     0.97583774
  WF centre and spread    8  (  1.904992,  1.904992, -0.000000 )     0.97583774
  WF centre and spread    9  ( -0.000000,  1.904992,  1.904992 )     0.97583851
  WF centre and spread   10  ( -0.000000,  1.904992,  1.904992 )     0.71591186
  WF centre and spread   11  (  0.000000,  1.904992,  1.904992 )     0.97583751
  WF centre and spread   12  (  1.904992, -0.000000,  1.904992 )     0.97583851
  WF centre and spread   13  (  1.904992, -0.000000,  1.904992 )     0.97583751
  WF centre and spread   14  (  1.904992,  0.000000,  1.904992 )     0.71591186
  Sum of centres and spreads ( 20.954915, 20.954915, 20.954915 )    10.97863730

     29    -0.368E-12     0.0000039036       10.9786373014       1.41  <-- CONV
        O_D=      0.0000000 O_OD=      0.2120555 O_TOT=     10.9786373 <-- SPRD
 Delta: O_D= -0.2057469E-13 O_OD= -0.3455847E-12 O_TOT= -0.3677059E-12 <-- DLTA
 ------------------------------------------------------------------------------
 Cycle:     30
  WF centre and spread    1  (  1.904992,  1.904992,  1.904992 )     0.51643544
  WF centre and spread    2  (  1.904992,  1.904992,  1.904992 )     0.64766250
  WF centre and spread    3  (  1.904992,  1.904992,  1.904992 )     0.64766250
  WF centre and spread    4  (  1.904992,  1.904992,  1.904992 )     0.51643588
  WF centre and spread    5  (  1.904992,  1.904992,  1.904992 )     0.64766246
  WF centre and spread    6  (  1.904992,  1.904992, -0.000000 )     0.71592726
  WF centre and spread    7  (  1.904992,  1.904992,  0.000000 )     0.97583774
  WF centre and spread    8  (  1.904992,  1.904992, -0.000000 )     0.97583774
  WF centre and spread    9  ( -0.000000,  1.904992,  1.904992 )     0.97583851
  WF centre and spread   10  ( -0.000000,  1.904992,  1.904992 )     0.71591185
  WF centre and spread   11  (  0.000000,  1.904992,  1.904992 )     0.97583752
  WF centre and spread   12  (  1.904992, -0.000000,  1.904992 )     0.97583851
  WF centre and spread   13  (  1.904992, -0.000000,  1.904992 )     0.97583752
  WF centre and spread   14  (  1.904992,  0.000000,  1.904992 )     0.71591185
  Sum of centres and spreads ( 20.954915, 20.954915, 20.954915 )    10.97863730

     30    -0.701E-11     0.0000038355       10.9786373014       1.44  <-- CONV
        O_D=      0.0000000 O_OD=      0.2120555 O_TOT=     10.9786373 <-- SPRD
 Delta: O_D= -0.5104089E-12 O_OD= -0.6498080E-11 O_TOT= -0.7007728E-11 <-- DLTA
 ------------------------------------------------------------------------------
 Cycle:     31
  WF centre and spread    1  (  1.904992,  1.904992,  1.904992 )     0.51643544
  WF centre and spread    2  (  1.904992,  1.904992,  1.904992 )     0.64766250
  WF centre and spread    3  (  1.904992,  1.904992,  1.904992 )     0.64766250
  WF centre and spread    4  (  1.904992,  1.904992,  1.904992 )     0.51643588
  WF centre and spread    5  (  1.904992,  1.904992,  1.904992 )     0.64766246
  WF centre and spread    6  (  1.904992,  1.904992, -0.000000 )     0.71592726
  WF centre and spread    7  (  1.904992,  1.904992,  0.000000 )     0.97583774
  WF centre and spread    8  (  1.904992,  1.904992, -0.000000 )     0.97583774
  WF centre and spread    9  ( -0.000000,  1.904992,  1.904992 )     0.97583851
  WF centre and spread   10  ( -0.000000,  1.904992,  1.904992 )     0.71591185
  WF centre and spread   11  (  0.000000,  1.904992,  1.904992 )     0.97583752
  WF centre and spread   12  (  1.904992, -0.000000,  1.904992 )     0.97583851
  WF centre and spread   13  (  1.904992, -0.000000,  1.904992 )     0.97583752
  WF centre and spread   14  (  1.904992,  0.000000,  1.904992 )     0.71591185
  Sum of centres and spreads ( 20.954915, 20.954915, 20.954915 )    10.97863730

     31    -0.782E-13     0.0000016272       10.9786373014       1.45  <-- CONV
        O_D=      0.0000000 O_OD=      0.2120555 O_TOT=     10.9786373 <-- SPRD
 Delta: O_D= -0.3789516E-14 O_OD= -0.7194245E-13 O_TOT= -0.7815970E-13 <-- DLTA
 ------------------------------------------------------------------------------
 Cycle:     32
  WF centre and spread    1  (  1.904992,  1.904992,  1.904992 )     0.51643545
  WF centre and spread    2  (  1.904992,  1.904992,  1.904992 )     0.64766250
  WF centre and spread    3  (  1.904992,  1.904992,  1.904992 )     0.64766250
  WF centre and spread    4  (  1.904992,  1.904992,  1.904992 )     0.51643589
  WF centre and spread    5  (  1.904992,  1.904992,  1.904992 )     0.64766246
  WF centre and spread    6  (  1.904992,  1.904992, -0.000000 )     0.71592726
  WF centre and spread    7  (  1.904992,  1.904992,  0.000000 )     0.97583774
  WF centre and spread    8  (  1.904992,  1.904992, -0.000000 )     0.97583774
  WF centre and spread    9  ( -0.000000,  1.904992,  1.904992 )     0.97583851
  WF centre and spread   10  ( -0.000000,  1.904992,  1.904992 )     0.71591185
  WF centre and spread   11  (  0.000000,  1.904992,  1.904992 )     0.97583752
  WF centre and spread   12  (  1.904992, -0.000000,  1.904992 )     0.97583851
  WF centre and spread   13  (  1.904992, -0.000000,  1.904992 )     0.97583752
  WF centre and spread   14  (  1.904992,  0.000000,  1.904992 )     0.71591185
  Sum of centres and spreads ( 20.954915, 20.954915, 20.954915 )    10.97863730

     32    -0.141E-11     0.0000015878       10.9786373014       1.47  <-- CONV
        O_D=      0.0000000 O_OD=      0.2120555 O_TOT=     10.9786373 <-- SPRD
 Delta: O_D=  0.3039682E-14 O_OD= -0.1411982E-11 O_TOT= -0.1406875E-11 <-- DLTA
 ------------------------------------------------------------------------------
 Cycle:     33
  WF centre and spread    1  (  1.904992,  1.904992,  1.904992 )     0.51643545
  WF centre and spread    2  (  1.904992,  1.904992,  1.904992 )     0.64766250
  WF centre and spread    3  (  1.904992,  1.904992,  1.904992 )     0.64766250
  WF centre and spread    4  (  1.904992,  1.904992,  1.904992 )     0.51643589
  WF centre and spread    5  (  1.904992,  1.904992,  1.904992 )     0.64766246
  WF centre and spread    6  (  1.904992,  1.904992, -0.000000 )     0.71592726
  WF centre and spread    7  (  1.904992,  1.904992,  0.000000 )     0.97583774
  WF centre and spread    8  (  1.904992,  1.904992, -0.000000 )     0.97583774
  WF centre and spread    9  ( -0.000000,  1.904992,  1.904992 )     0.97583851
  WF centre and spread   10  ( -0.000000,  1.904992,  1.904992 )     0.71591185
  WF centre and spread   11  (  0.000000,  1.904992,  1.904992 )     0.97583752
  WF centre and spread   12  (  1.904992, -0.000000,  1.904992 )     0.97583851
  WF centre and spread   13  (  1.904992, -0.000000,  1.904992 )     0.97583752
  WF centre and spread   14  (  1.904992,  0.000000,  1.904992 )     0.71591185
  Sum of centres and spreads ( 20.954915, 20.954915, 20.954915 )    10.97863730

     33    -0.391E-13     0.0000009232       10.9786373014       1.48  <-- CONV
        O_D=      0.0000000 O_OD=      0.2120555 O_TOT=     10.9786373 <-- SPRD
 Delta: O_D= -0.1334389E-14 O_OD= -0.3572143E-13 O_TOT= -0.3907985E-13 <-- DLTA
 ------------------------------------------------------------------------------
 Cycle:     34
  WF centre and spread    1  (  1.904992,  1.904992,  1.904992 )     0.51643545
  WF centre and spread    2  (  1.904992,  1.904992,  1.904992 )     0.64766250
  WF centre and spread    3  (  1.904992,  1.904992,  1.904992 )     0.64766250
  WF centre and spread    4  (  1.904992,  1.904992,  1.904992 )     0.51643589
  WF centre and spread    5  (  1.904992,  1.904992,  1.904992 )     0.64766246
  WF centre and spread    6  (  1.904992,  1.904992, -0.000000 )     0.71592726
  WF centre and spread    7  (  1.904992,  1.904992,  0.000000 )     0.97583774
  WF centre and spread    8  (  1.904992,  1.904992, -0.000000 )     0.97583774
  WF centre and spread    9  ( -0.000000,  1.904992,  1.904992 )     0.97583851
  WF centre and spread   10  ( -0.000000,  1.904992,  1.904992 )     0.71591185
  WF centre and spread   11  (  0.000000,  1.904992,  1.904992 )     0.97583752
  WF centre and spread   12  (  1.904992, -0.000000,  1.904992 )     0.97583851
  WF centre and spread   13  (  1.904992, -0.000000,  1.904992 )     0.97583752
  WF centre and spread   14  (  1.904992,  0.000000,  1.904992 )     0.71591185
  Sum of centres and spreads ( 20.954915, 20.954915, 20.954915 )    10.97863730

     34    -0.604E-13     0.0000009022       10.9786373014       1.50  <-- CONV
        O_D=      0.0000000 O_OD=      0.2120555 O_TOT=     10.9786373 <-- SPRD
 Delta: O_D= -0.4704946E-14 O_OD= -0.5678791E-13 O_TOT= -0.6039613E-13 <-- DLTA
 ------------------------------------------------------------------------------
 Cycle:     35
  WF centre and spread    1  (  1.904992,  1.904992,  1.904992 )     0.51643545
  WF centre and spread    2  (  1.904992,  1.904992,  1.904992 )     0.64766250
  WF centre and spread    3  (  1.904992,  1.904992,  1.904992 )     0.64766250
  WF centre and spread    4  (  1.904992,  1.904992,  1.904992 )     0.51643589
  WF centre and spread    5  (  1.904992,  1.904992,  1.904992 )     0.64766246
  WF centre and spread    6  (  1.904992,  1.904992, -0.000000 )     0.71592726
  WF centre and spread    7  (  1.904992,  1.904992,  0.000000 )     0.97583774
  WF centre and spread    8  (  1.904992,  1.904992, -0.000000 )     0.97583774
  WF centre and spread    9  ( -0.000000,  1.904992,  1.904992 )     0.97583851
  WF centre and spread   10  ( -0.000000,  1.904992,  1.904992 )     0.71591185
  WF centre and spread   11  (  0.000000,  1.904992,  1.904992 )     0.97583752
  WF centre and spread   12  (  1.904992, -0.000000,  1.904992 )     0.97583851
  WF centre and spread   13  (  1.904992, -0.000000,  1.904992 )     0.97583752
  WF centre and spread   14  (  1.904992,  0.000000,  1.904992 )     0.71591185
  Sum of centres and spreads ( 20.954915, 20.954915, 20.954915 )    10.97863730

     35    -0.206E-12     0.0000008559       10.9786373014       1.52  <-- CONV
        O_D=      0.0000000 O_OD=      0.2120555 O_TOT=     10.9786373 <-- SPRD
 Delta: O_D= -0.1895602E-13 O_OD= -0.1873501E-12 O_TOT= -0.2060574E-12 <-- DLTA
 ------------------------------------------------------------------------------
 Cycle:     36
  WF centre and spread    1  (  1.904992,  1.904992,  1.904992 )     0.51643545
  WF centre and spread    2  (  1.904992,  1.904992,  1.904992 )     0.64766250
  WF centre and spread    3  (  1.904992,  1.904992,  1.904992 )     0.64766250
  WF centre and spread    4  (  1.904992,  1.904992,  1.904992 )     0.51643589
  WF centre and spread    5  (  1.904992,  1.904992,  1.904992 )     0.64766246
  WF centre and spread    6  (  1.904992,  1.904992, -0.000000 )     0.71592725
  WF centre and spread    7  (  1.904992,  1.904992,  0.000000 )     0.97583774
[...]
 Cycle:    290
  WF centre and spread    1  (  1.904992,  1.904992,  1.904992 )     0.51645492
  WF centre and spread    2  (  1.904992,  1.904992,  1.904992 )     0.64768196
  WF centre and spread    3  (  1.904992,  1.904992,  1.904992 )     0.64768173
  WF centre and spread    4  (  1.904993,  1.904992,  1.904992 )     0.51645230
  WF centre and spread    5  (  1.904992,  1.904992,  1.904992 )     0.64768183
  WF centre and spread    6  (  1.904991,  1.904994, -0.000000 )     0.71599629
  WF centre and spread    7  (  1.904992,  1.904992, -0.000000 )     0.97593799
  WF centre and spread    8  (  1.904992,  1.904992,  0.000000 )     0.97593875
  WF centre and spread    9  (  0.000000,  1.904993,  1.904992 )     0.97594183
  WF centre and spread   10  ( -0.000000,  1.904992,  1.904993 )     0.71598379
  WF centre and spread   11  (  0.000000,  1.904992,  1.904992 )     0.97594042
  WF centre and spread   12  (  1.904992, -0.000000,  1.904992 )     0.97593972
  WF centre and spread   13  (  1.904992,  0.000000,  1.904992 )     0.97593780
  WF centre and spread   14  (  1.904993, -0.000001,  1.904992 )     0.71599072
  Sum of centres and spreads ( 20.954914, 20.954914, 20.954916 )    10.97956007

    290     0.178E-14     0.0000000720       10.9795600668      10.96  <-- CONV
        O_D=      0.0000000 O_OD=      0.2120933 O_TOT=     10.9795601 <-- SPRD
 Delta: O_D=  0.4939795E-18 O_OD=  0.1720846E-14 O_TOT=  0.1776357E-14 <-- DLTA
 ------------------------------------------------------------------------------
 Cycle:    291
  WF centre and spread    1  (  1.904992,  1.904992,  1.904992 )     0.51645492
  WF centre and spread    2  (  1.904992,  1.904992,  1.904992 )     0.64768196
  WF centre and spread    3  (  1.904992,  1.904992,  1.904992 )     0.64768173
  WF centre and spread    4  (  1.904993,  1.904992,  1.904992 )     0.51645230
  WF centre and spread    5  (  1.904992,  1.904992,  1.904992 )     0.64768183
  WF centre and spread    6  (  1.904991,  1.904994, -0.000000 )     0.71599629
  WF centre and spread    7  (  1.904992,  1.904992, -0.000000 )     0.97593799
  WF centre and spread    8  (  1.904992,  1.904992,  0.000000 )     0.97593875
  WF centre and spread    9  (  0.000000,  1.904993,  1.904992 )     0.97594183
  WF centre and spread   10  ( -0.000000,  1.904992,  1.904993 )     0.71598379
  WF centre and spread   11  (  0.000000,  1.904992,  1.904992 )     0.97594042
  WF centre and spread   12  (  1.904992, -0.000000,  1.904992 )     0.97593972
  WF centre and spread   13  (  1.904992,  0.000000,  1.904992 )     0.97593780
  WF centre and spread   14  (  1.904993, -0.000001,  1.904992 )     0.71599072
  Sum of centres and spreads ( 20.954914, 20.954914, 20.954916 )    10.97956007

    291    -0.355E-14     0.0000000718       10.9795600668      10.98  <-- CONV
        O_D=      0.0000000 O_OD=      0.2120933 O_TOT=     10.9795601 <-- SPRD
 Delta: O_D=  0.7381069E-18 O_OD= -0.3053113E-14 O_TOT= -0.3552714E-14 <-- DLTA
 ------------------------------------------------------------------------------
 Cycle:    292
  WF centre and spread    1  (  1.904992,  1.904992,  1.904992 )     0.51645493
  WF centre and spread    2  (  1.904992,  1.904992,  1.904992 )     0.64768196
  WF centre and spread    3  (  1.904992,  1.904992,  1.904992 )     0.64768173
  WF centre and spread    4  (  1.904993,  1.904992,  1.904992 )     0.51645230
  WF centre and spread    5  (  1.904992,  1.904992,  1.904992 )     0.64768183
  WF centre and spread    6  (  1.904991,  1.904994, -0.000000 )     0.71599629
  WF centre and spread    7  (  1.904992,  1.904992, -0.000000 )     0.97593799
  WF centre and spread    8  (  1.904992,  1.904992,  0.000000 )     0.97593875
  WF centre and spread    9  (  0.000000,  1.904993,  1.904992 )     0.97594183
  WF centre and spread   10  ( -0.000000,  1.904992,  1.904993 )     0.71598379
  WF centre and spread   11  (  0.000000,  1.904992,  1.904992 )     0.97594042
  WF centre and spread   12  (  1.904992, -0.000000,  1.904992 )     0.97593972
  WF centre and spread   13  (  1.904992,  0.000000,  1.904992 )     0.97593780
  WF centre and spread   14  (  1.904993, -0.000001,  1.904992 )     0.71599072
  Sum of centres and spreads ( 20.954914, 20.954914, 20.954916 )    10.97956007

    292     0.178E-14     0.0000000714       10.9795600668      10.99  <-- CONV
        O_D=      0.0000000 O_OD=      0.2120933 O_TOT=     10.9795601 <-- SPRD
 Delta: O_D=  0.9790724E-18 O_OD=  0.1332268E-14 O_TOT=  0.1776357E-14 <-- DLTA
 ------------------------------------------------------------------------------
 Cycle:    293
  WF centre and spread    1  (  1.904992,  1.904992,  1.904992 )     0.51645493
  WF centre and spread    2  (  1.904992,  1.904992,  1.904992 )     0.64768196
  WF centre and spread    3  (  1.904992,  1.904992,  1.904992 )     0.64768173
  WF centre and spread    4  (  1.904993,  1.904992,  1.904992 )     0.51645230
  WF centre and spread    5  (  1.904992,  1.904992,  1.904992 )     0.64768183
  WF centre and spread    6  (  1.904991,  1.904994, -0.000000 )     0.71599629
  WF centre and spread    7  (  1.904992,  1.904992, -0.000000 )     0.97593799
  WF centre and spread    8  (  1.904992,  1.904992,  0.000000 )     0.97593875
  WF centre and spread    9  (  0.000000,  1.904993,  1.904992 )     0.97594183
  WF centre and spread   10  ( -0.000000,  1.904992,  1.904993 )     0.71598379
  WF centre and spread   11  (  0.000000,  1.904992,  1.904992 )     0.97594042
  WF centre and spread   12  (  1.904992, -0.000000,  1.904992 )     0.97593972
  WF centre and spread   13  (  1.904992,  0.000000,  1.904992 )     0.97593780
  WF centre and spread   14  (  1.904993, -0.000001,  1.904992 )     0.71599072
  Sum of centres and spreads ( 20.954914, 20.954914, 20.954916 )    10.97956007

    293     0.000E+00     0.0000000710       10.9795600668      11.00  <-- CONV
        O_D=      0.0000000 O_OD=      0.2120933 O_TOT=     10.9795601 <-- SPRD
 Delta: O_D=  0.1214288E-17 O_OD=  0.8326673E-15 O_TOT=  0.0000000E+00 <-- DLTA
 ------------------------------------------------------------------------------
 Cycle:    294
  WF centre and spread    1  (  1.904992,  1.904992,  1.904992 )     0.51645493
  WF centre and spread    2  (  1.904992,  1.904992,  1.904992 )     0.64768196
  WF centre and spread    3  (  1.904992,  1.904992,  1.904992 )     0.64768173
  WF centre and spread    4  (  1.904993,  1.904992,  1.904992 )     0.51645230
  WF centre and spread    5  (  1.904992,  1.904992,  1.904992 )     0.64768183
  WF centre and spread    6  (  1.904991,  1.904994, -0.000000 )     0.71599629
  WF centre and spread    7  (  1.904992,  1.904992, -0.000000 )     0.97593799
  WF centre and spread    8  (  1.904992,  1.904992,  0.000000 )     0.97593875
  WF centre and spread    9  (  0.000000,  1.904993,  1.904992 )     0.97594183
  WF centre and spread   10  ( -0.000000,  1.904992,  1.904993 )     0.71598379
  WF centre and spread   11  (  0.000000,  1.904992,  1.904992 )     0.97594042
  WF centre and spread   12  (  1.904992, -0.000000,  1.904992 )     0.97593972
  WF centre and spread   13  (  1.904992,  0.000000,  1.904992 )     0.97593780
  WF centre and spread   14  (  1.904993, -0.000001,  1.904992 )     0.71599072
  Sum of centres and spreads ( 20.954914, 20.954914, 20.954916 )    10.97956007

    294    -0.178E-14     0.0000000704       10.9795600668      11.01  <-- CONV
        O_D=      0.0000000 O_OD=      0.2120933 O_TOT=     10.9795601 <-- SPRD
 Delta: O_D=  0.1442708E-17 O_OD= -0.2942091E-14 O_TOT= -0.1776357E-14 <-- DLTA
 ------------------------------------------------------------------------------
 Cycle:    295
  WF centre and spread    1  (  1.904992,  1.904992,  1.904992 )     0.51645493
  WF centre and spread    2  (  1.904992,  1.904992,  1.904992 )     0.64768196
  WF centre and spread    3  (  1.904992,  1.904992,  1.904992 )     0.64768173
  WF centre and spread    4  (  1.904993,  1.904992,  1.904992 )     0.51645230
  WF centre and spread    5  (  1.904992,  1.904992,  1.904992 )     0.64768183
  WF centre and spread    6  (  1.904991,  1.904994, -0.000000 )     0.71599629
  WF centre and spread    7  (  1.904992,  1.904992, -0.000000 )     0.97593799
  WF centre and spread    8  (  1.904992,  1.904992,  0.000000 )     0.97593875
  WF centre and spread    9  (  0.000000,  1.904993,  1.904992 )     0.97594183
  WF centre and spread   10  ( -0.000000,  1.904992,  1.904993 )     0.71598379
  WF centre and spread   11  (  0.000000,  1.904992,  1.904992 )     0.97594042
  WF centre and spread   12  (  1.904992, -0.000000,  1.904992 )     0.97593972
  WF centre and spread   13  (  1.904992,  0.000000,  1.904992 )     0.97593780
  WF centre and spread   14  (  1.904993, -0.000001,  1.904992 )     0.71599072
  Sum of centres and spreads ( 20.954914, 20.954914, 20.954916 )    10.97956007

    295     0.000E+00     0.0000000698       10.9795600668      11.02  <-- CONV
        O_D=      0.0000000 O_OD=      0.2120933 O_TOT=     10.9795601 <-- SPRD
 Delta: O_D=  0.2476657E-18 O_OD=  0.1942890E-15 O_TOT=  0.0000000E+00 <-- DLTA
 ------------------------------------------------------------------------------
 Cycle:    296
  WF centre and spread    1  (  1.904992,  1.904992,  1.904992 )     0.51645493
  WF centre and spread    2  (  1.904992,  1.904992,  1.904992 )     0.64768196
  WF centre and spread    3  (  1.904992,  1.904992,  1.904992 )     0.64768173
  WF centre and spread    4  (  1.904993,  1.904992,  1.904992 )     0.51645230
  WF centre and spread    5  (  1.904992,  1.904992,  1.904992 )     0.64768183
  WF centre and spread    6  (  1.904991,  1.904994, -0.000000 )     0.71599629
  WF centre and spread    7  (  1.904992,  1.904992, -0.000000 )     0.97593799
  WF centre and spread    8  (  1.904992,  1.904992,  0.000000 )     0.97593875
  WF centre and spread    9  (  0.000000,  1.904993,  1.904992 )     0.97594183
  WF centre and spread   10  ( -0.000000,  1.904992,  1.904993 )     0.71598379
  WF centre and spread   11  (  0.000000,  1.904992,  1.904992 )     0.97594042
  WF centre and spread   12  (  1.904992, -0.000000,  1.904992 )     0.97593972
  WF centre and spread   13  (  1.904992,  0.000000,  1.904992 )     0.97593780
  WF centre and spread   14  (  1.904993, -0.000001,  1.904992 )     0.71599072
  Sum of centres and spreads ( 20.954914, 20.954914, 20.954916 )    10.97956007

    296     0.178E-14     0.0000000697       10.9795600668      11.04  <-- CONV
        O_D=      0.0000000 O_OD=      0.2120933 O_TOT=     10.9795601 <-- SPRD
 Delta: O_D=  0.4935494E-18 O_OD=  0.1276756E-14 O_TOT=  0.1776357E-14 <-- DLTA
 ------------------------------------------------------------------------------
 Cycle:    297
  WF centre and spread    1  (  1.904992,  1.904992,  1.904992 )     0.51645493
  WF centre and spread    2  (  1.904992,  1.904992,  1.904992 )     0.64768196
  WF centre and spread    3  (  1.904992,  1.904992,  1.904992 )     0.64768173
  WF centre and spread    4  (  1.904993,  1.904992,  1.904992 )     0.51645230
  WF centre and spread    5  (  1.904992,  1.904992,  1.904992 )     0.64768183
  WF centre and spread    6  (  1.904991,  1.904994, -0.000000 )     0.71599629
  WF centre and spread    7  (  1.904992,  1.904992, -0.000000 )     0.97593799
  WF centre and spread    8  (  1.904992,  1.904992,  0.000000 )     0.97593875
  WF centre and spread    9  (  0.000000,  1.904993,  1.904992 )     0.97594183
  WF centre and spread   10  ( -0.000000,  1.904992,  1.904993 )     0.71598379
  WF centre and spread   11  (  0.000000,  1.904992,  1.904992 )     0.97594042
  WF centre and spread   12  (  1.904992, -0.000000,  1.904992 )     0.97593972
  WF centre and spread   13  (  1.904992,  0.000000,  1.904992 )     0.97593780
  WF centre and spread   14  (  1.904993, -0.000001,  1.904992 )     0.71599072
  Sum of centres and spreads ( 20.954914, 20.954914, 20.954916 )    10.97956007

    297    -0.178E-14     0.0000000695       10.9795600668      11.05  <-- CONV
        O_D=      0.0000000 O_OD=      0.2120933 O_TOT=     10.9795601 <-- SPRD
 Delta: O_D=  0.7384527E-18 O_OD= -0.8326673E-15 O_TOT= -0.1776357E-14 <-- DLTA
 ------------------------------------------------------------------------------
 Cycle:    298
  WF centre and spread    1  (  1.904992,  1.904992,  1.904992 )     0.51645493
  WF centre and spread    2  (  1.904992,  1.904992,  1.904992 )     0.64768196
  WF centre and spread    3  (  1.904992,  1.904992,  1.904992 )     0.64768173
  WF centre and spread    4  (  1.904993,  1.904992,  1.904992 )     0.51645230
  WF centre and spread    5  (  1.904992,  1.904992,  1.904992 )     0.64768183
  WF centre and spread    6  (  1.904991,  1.904994, -0.000000 )     0.71599628
  WF centre and spread    7  (  1.904992,  1.904992, -0.000000 )     0.97593799
  WF centre and spread    8  (  1.904992,  1.904992,  0.000000 )     0.97593875
  WF centre and spread    9  (  0.000000,  1.904993,  1.904992 )     0.97594183
  WF centre and spread   10  ( -0.000000,  1.904992,  1.904993 )     0.71598379
  WF centre and spread   11  (  0.000000,  1.904992,  1.904992 )     0.97594042
  WF centre and spread   12  (  1.904992, -0.000000,  1.904992 )     0.97593972
  WF centre and spread   13  (  1.904992,  0.000000,  1.904992 )     0.97593780
  WF centre and spread   14  (  1.904993, -0.000001,  1.904992 )     0.71599072
  Sum of centres and spreads ( 20.954914, 20.954914, 20.954916 )    10.97956007

    298    -0.178E-14     0.0000000691       10.9795600668      11.06  <-- CONV
        O_D=      0.0000000 O_OD=      0.2120933 O_TOT=     10.9795601 <-- SPRD
 Delta: O_D=  0.9799665E-18 O_OD= -0.2636780E-14 O_TOT= -0.1776357E-14 <-- DLTA
 ------------------------------------------------------------------------------
 Cycle:    299
  WF centre and spread    1  (  1.904992,  1.904992,  1.904992 )     0.51645493
  WF centre and spread    2  (  1.904992,  1.904992,  1.904992 )     0.64768196
  WF centre and spread    3  (  1.904992,  1.904992,  1.904992 )     0.64768173
  WF centre and spread    4  (  1.904993,  1.904992,  1.904992 )     0.51645230
  WF centre and spread    5  (  1.904992,  1.904992,  1.904992 )     0.64768183
  WF centre and spread    6  (  1.904991,  1.904994, -0.000000 )     0.71599628
  WF centre and spread    7  (  1.904992,  1.904992, -0.000000 )     0.97593799
  WF centre and spread    8  (  1.904992,  1.904992,  0.000000 )     0.97593875
  WF centre and spread    9  (  0.000000,  1.904993,  1.904992 )     0.97594183
  WF centre and spread   10  ( -0.000000,  1.904992,  1.904993 )     0.71598379
  WF centre and spread   11  (  0.000000,  1.904992,  1.904992 )     0.97594042
  WF centre and spread   12  (  1.904992, -0.000000,  1.904992 )     0.97593972
  WF centre and spread   13  (  1.904992,  0.000000,  1.904992 )     0.97593780
  WF centre and spread   14  (  1.904993, -0.000001,  1.904992 )     0.71599072
  Sum of centres and spreads ( 20.954914, 20.954914, 20.954916 )    10.97956007

    299     0.000E+00     0.0000000687       10.9795600668      11.07  <-- CONV
        O_D=      0.0000000 O_OD=      0.2120933 O_TOT=     10.9795601 <-- SPRD
 Delta: O_D=  0.1216958E-17 O_OD= -0.1110223E-15 O_TOT=  0.0000000E+00 <-- DLTA
 ------------------------------------------------------------------------------
 Cycle:    300
  WF centre and spread    1  (  1.904992,  1.904992,  1.904992 )     0.51645493
  WF centre and spread    2  (  1.904992,  1.904992,  1.904992 )     0.64768196
  WF centre and spread    3  (  1.904992,  1.904992,  1.904992 )     0.64768173
  WF centre and spread    4  (  1.904993,  1.904992,  1.904992 )     0.51645230
  WF centre and spread    5  (  1.904992,  1.904992,  1.904992 )     0.64768183
  WF centre and spread    6  (  1.904991,  1.904994, -0.000000 )     0.71599628
  WF centre and spread    7  (  1.904992,  1.904992, -0.000000 )     0.97593799
  WF centre and spread    8  (  1.904992,  1.904992,  0.000000 )     0.97593875
  WF centre and spread    9  (  0.000000,  1.904993,  1.904992 )     0.97594183
  WF centre and spread   10  ( -0.000000,  1.904992,  1.904993 )     0.71598379
  WF centre and spread   11  (  0.000000,  1.904992,  1.904992 )     0.97594042
  WF centre and spread   12  (  1.904992, -0.000000,  1.904992 )     0.97593972
  WF centre and spread   13  (  1.904992,  0.000000,  1.904992 )     0.97593780
  WF centre and spread   14  (  1.904993, -0.000001,  1.904992 )     0.71599072
  Sum of centres and spreads ( 20.954914, 20.954914, 20.954916 )    10.97956007

    300    -0.355E-14     0.0000000682       10.9795600668      11.08  <-- CONV
        O_D=      0.0000000 O_OD=      0.2120933 O_TOT=     10.9795601 <-- SPRD
 Delta: O_D=  0.1447316E-17 O_OD= -0.2137179E-14 O_TOT= -0.3552714E-14 <-- DLTA
 ------------------------------------------------------------------------------

 Writing checkpoint file abinito_w90_down.chk... done

 Final State
  WF centre and spread    1  (  1.904992,  1.904992,  1.904992 )     0.51645493
  WF centre and spread    2  (  1.904992,  1.904992,  1.904992 )     0.64768196
  WF centre and spread    3  (  1.904992,  1.904992,  1.904992 )     0.64768173
  WF centre and spread    4  (  1.904993,  1.904992,  1.904992 )     0.51645230
  WF centre and spread    5  (  1.904992,  1.904992,  1.904992 )     0.64768183
  WF centre and spread    6  (  1.904991,  1.904994, -0.000000 )     0.71599628
  WF centre and spread    7  (  1.904992,  1.904992, -0.000000 )     0.97593799
  WF centre and spread    8  (  1.904992,  1.904992,  0.000000 )     0.97593875
  WF centre and spread    9  (  0.000000,  1.904993,  1.904992 )     0.97594183
  WF centre and spread   10  ( -0.000000,  1.904992,  1.904993 )     0.71598379
  WF centre and spread   11  (  0.000000,  1.904992,  1.904992 )     0.97594042
  WF centre and spread   12  (  1.904992, -0.000000,  1.904992 )     0.97593972
  WF centre and spread   13  (  1.904992,  0.000000,  1.904992 )     0.97593780
  WF centre and spread   14  (  1.904993, -0.000001,  1.904992 )     0.71599072
  Sum of centres and spreads ( 20.954914, 20.954914, 20.954916 )    10.97956007

         Spreads (Ang^2)       Omega I      =    10.767466750
        ================       Omega D      =     0.000000000
                               Omega OD     =     0.212093317
    Final Spread (Ang^2)       Omega Total  =    10.979560067
 ------------------------------------------------------------------------------

 Wannier centres written to file abinito_w90_down_centres.xyz

 Writing checkpoint file abinito_w90_down.chk... done

 Time for wannierise            4.585 (sec)
 *---------------------------------------------------------------------------*
 |                               PLOTTING                                    |
 *---------------------------------------------------------------------------*

 !!!! Kpoint grid does not include Gamma.  Interpolation may be incorrect. !!!!
 Time for plotting              0.248 (sec)
 Total Execution Time           5.686 (sec)

 *===========================================================================*
 |                             TIMING INFORMATION                            |
 *===========================================================================*
 |    Tag                                                Ncalls      Time (s)|
 |---------------------------------------------------------------------------|
 |kmesh: get                                        :         4         0.134|
 |overlap: allocate                                 :         2         0.000|
 |dis: main                                         :         2         1.610|
 |wann: main                                        :         2         8.883|
 |plot: main                                        :         2         0.712|
 *---------------------------------------------------------------------------*

 All done: wannier90 exiting
